/*--------------------------------*- C++ -*----------------------------------*\
| =========                 |                                                 |
| \\      /  F ield         | OpenFOAM: The Open Source CFD Toolbox           |
|  \\    /   O peration     | Version:  2406                                  |
|   \\  /    A nd           | Website:  www.openfoam.com                      |
|    \\/     M anipulation  |                                                 |
\*---------------------------------------------------------------------------*/
FoamFile
{
    version     2.0;
    format      ascii;
    arch        "LSB;label=32;scalar=64";
    class       volScalarField;
    location    "0.9";
    object      H2O;
}
// * * * * * * * * * * * * * * * * * * * * * * * * * * * * * * * * * * * * * //

dimensions      [0 0 0 0 0 0 0];

internalField   nonuniform List<scalar> 
1000
(
0.0580663
0.0580663
0.0580663
0.0580663
0.0580662
0.0580662
0.0580662
0.0580662
0.0580662
0.0580661
0.0580661
0.0580661
0.0580661
0.0580661
0.0580661
0.0580661
0.058066
0.058066
0.058066
0.058066
0.058066
0.058066
0.058066
0.058066
0.0580659
0.0580659
0.0580659
0.0580659
0.0580659
0.0580658
0.0580658
0.0580658
0.0580658
0.0580657
0.0580657
0.0580657
0.0580656
0.0580656
0.0580656
0.0580656
0.0580655
0.0580655
0.0580655
0.0580654
0.0580654
0.0580654
0.0580653
0.0580653
0.0580653
0.0580652
0.0580652
0.0580652
0.0580651
0.0580651
0.0580651
0.058065
0.058065
0.0580649
0.0580649
0.0580649
0.0580648
0.0580648
0.0580648
0.0580647
0.0580647
0.0580646
0.0580646
0.0580646
0.0580645
0.0580645
0.0580644
0.0580644
0.0580643
0.0580643
0.0580642
0.0580641
0.0580641
0.058064
0.058064
0.0580639
0.0580638
0.0580638
0.0580637
0.0580636
0.0580635
0.0580635
0.0580634
0.0580633
0.0580632
0.0580631
0.058063
0.0580629
0.0580628
0.0580627
0.0580625
0.0580624
0.0580623
0.0580621
0.0580619
0.0580618
0.0580616
0.0580614
0.0580612
0.058061
0.0580607
0.0580605
0.0580602
0.0580599
0.0580596
0.0580592
0.0580588
0.0580584
0.058058
0.0580574
0.0580569
0.0580562
0.0580555
0.0580547
0.0580537
0.0580527
0.0580514
0.0580499
0.0580482
0.0580461
0.0580435
0.0580403
0.0580362
0.0580309
0.0580237
0.0580135
0.0579979
0.0579722
0.0579236
0.0578154
0.0575271
0.0566355
0.0535302
0.0402348
0.0200419
0.00983038
0.00481736
0.00236526
0.00116393
0.000573848
0.000283316
0.000139999
6.92103e-05
3.4218e-05
1.6915e-05
8.35904e-06
4.12925e-06
2.03893e-06
1.00636e-06
4.96523e-07
2.44898e-07
1.2076e-07
5.9539e-08
2.93562e-08
1.44791e-08
7.14971e-09
3.53637e-09
1.75956e-09
8.80734e-10
4.40799e-10
2.29049e-10
1.47854e-10
1.01557e-10
6.68561e-11
4.99809e-11
4.23828e-11
3.74449e-11
3.36694e-11
3.23266e-11
3.12772e-11
3.05411e-11
3.02913e-11
3.01069e-11
2.99617e-11
2.99087e-11
2.98702e-11
2.985e-11
2.98352e-11
2.98279e-11
2.98246e-11
2.98225e-11
2.98213e-11
2.98205e-11
2.98201e-11
2.98199e-11
2.98198e-11
2.98197e-11
2.98196e-11
2.98196e-11
2.98196e-11
2.98196e-11
2.98196e-11
2.98196e-11
2.98197e-11
2.98197e-11
2.98197e-11
2.98197e-11
2.98197e-11
2.98197e-11
2.98197e-11
2.98197e-11
2.98197e-11
2.98198e-11
2.98198e-11
2.98198e-11
2.98198e-11
2.98198e-11
2.98198e-11
2.98198e-11
2.98198e-11
2.98199e-11
2.98199e-11
2.98199e-11
2.98199e-11
2.98199e-11
2.98199e-11
2.98199e-11
2.98199e-11
2.982e-11
2.982e-11
2.982e-11
2.982e-11
2.982e-11
2.982e-11
2.982e-11
2.982e-11
2.98201e-11
2.98201e-11
2.98201e-11
2.98201e-11
2.98201e-11
2.98201e-11
2.98201e-11
2.98202e-11
2.98202e-11
2.98202e-11
2.98202e-11
2.98202e-11
2.98202e-11
2.98202e-11
2.98202e-11
2.98202e-11
2.98203e-11
2.98203e-11
2.98203e-11
2.98203e-11
2.98203e-11
2.98203e-11
2.98203e-11
2.98203e-11
2.98204e-11
2.98204e-11
2.98204e-11
2.98204e-11
2.98204e-11
2.98204e-11
2.98204e-11
2.98204e-11
2.98204e-11
2.98205e-11
2.98205e-11
2.98205e-11
2.98205e-11
2.98205e-11
2.98205e-11
2.98205e-11
2.98205e-11
2.98205e-11
2.98206e-11
2.98206e-11
2.98206e-11
2.98206e-11
2.98206e-11
2.98206e-11
2.98206e-11
2.98206e-11
2.98207e-11
2.98207e-11
2.98207e-11
2.98207e-11
2.98207e-11
2.98207e-11
2.98207e-11
2.98207e-11
2.98207e-11
2.98208e-11
2.98208e-11
2.98208e-11
2.98208e-11
2.98208e-11
2.98208e-11
2.98208e-11
2.98208e-11
2.98208e-11
2.98208e-11
2.98209e-11
2.98209e-11
2.98209e-11
2.98209e-11
2.98209e-11
2.98209e-11
2.98209e-11
2.98209e-11
2.98209e-11
2.9821e-11
2.9821e-11
2.9821e-11
2.9821e-11
2.9821e-11
2.9821e-11
2.9821e-11
2.9821e-11
2.9821e-11
2.98211e-11
2.98211e-11
2.98211e-11
2.98211e-11
2.98211e-11
2.98211e-11
2.98211e-11
2.98211e-11
2.98211e-11
2.98211e-11
2.98212e-11
2.98212e-11
2.98212e-11
2.98212e-11
2.98212e-11
2.98212e-11
2.98212e-11
2.98212e-11
2.98212e-11
2.98213e-11
2.98213e-11
2.98213e-11
2.98213e-11
2.98213e-11
2.98213e-11
2.98213e-11
2.98213e-11
2.98213e-11
2.98214e-11
2.98214e-11
2.98214e-11
2.98214e-11
2.98214e-11
2.98214e-11
2.98214e-11
2.98214e-11
2.98214e-11
2.98215e-11
2.98215e-11
2.98215e-11
2.98215e-11
2.98215e-11
2.98215e-11
2.98215e-11
2.98215e-11
2.98216e-11
2.98216e-11
2.98216e-11
2.98216e-11
2.98216e-11
2.98216e-11
2.98216e-11
2.98216e-11
2.98216e-11
2.98217e-11
2.98217e-11
2.98217e-11
2.98217e-11
2.98217e-11
2.98217e-11
2.98217e-11
2.98217e-11
2.98218e-11
2.98218e-11
2.98218e-11
2.98218e-11
2.98218e-11
2.98218e-11
2.98218e-11
2.98218e-11
2.98219e-11
2.98219e-11
2.98219e-11
2.98219e-11
2.98219e-11
2.98219e-11
2.98219e-11
2.98219e-11
2.9822e-11
2.9822e-11
2.9822e-11
2.9822e-11
2.9822e-11
2.9822e-11
2.9822e-11
2.98221e-11
2.98221e-11
2.98221e-11
2.98221e-11
2.98221e-11
2.98221e-11
2.98221e-11
2.98221e-11
2.98222e-11
2.98222e-11
2.98222e-11
2.98222e-11
2.98222e-11
2.98222e-11
2.98222e-11
2.98223e-11
2.98223e-11
2.98223e-11
2.98223e-11
2.98223e-11
2.98223e-11
2.98223e-11
2.98224e-11
2.98224e-11
2.98224e-11
2.98224e-11
2.98224e-11
2.98224e-11
2.98224e-11
2.98225e-11
2.98225e-11
2.98225e-11
2.98225e-11
2.98225e-11
2.98225e-11
2.98225e-11
2.98226e-11
2.98226e-11
2.98226e-11
2.98226e-11
2.98226e-11
2.98226e-11
2.98227e-11
2.98227e-11
2.98227e-11
2.98227e-11
2.98227e-11
2.98227e-11
2.98227e-11
2.98228e-11
2.98228e-11
2.98228e-11
2.98228e-11
2.98228e-11
2.98228e-11
2.98229e-11
2.98229e-11
2.98229e-11
2.98229e-11
2.98229e-11
2.98229e-11
2.9823e-11
2.9823e-11
2.9823e-11
2.9823e-11
2.9823e-11
2.9823e-11
2.98231e-11
2.98231e-11
2.98231e-11
2.98231e-11
2.98231e-11
2.98231e-11
2.98232e-11
2.98232e-11
2.98232e-11
2.98232e-11
2.98232e-11
2.98232e-11
2.98233e-11
2.98233e-11
2.98233e-11
2.98233e-11
2.98233e-11
2.98233e-11
2.98234e-11
2.98234e-11
2.98234e-11
2.98234e-11
2.98234e-11
2.98234e-11
2.98235e-11
2.98235e-11
2.98235e-11
2.98235e-11
2.98235e-11
2.98236e-11
2.98236e-11
2.98236e-11
2.98236e-11
2.98236e-11
2.98236e-11
2.98237e-11
2.98237e-11
2.98237e-11
2.98237e-11
2.98237e-11
2.98237e-11
2.98238e-11
2.98238e-11
2.98238e-11
2.98238e-11
2.98238e-11
2.98239e-11
2.98239e-11
2.98239e-11
2.98239e-11
2.98239e-11
2.98239e-11
2.9824e-11
2.9824e-11
2.9824e-11
2.9824e-11
2.9824e-11
2.98241e-11
2.98241e-11
2.98241e-11
2.98241e-11
2.98241e-11
2.98241e-11
2.98242e-11
2.98242e-11
2.98242e-11
2.98242e-11
2.98242e-11
2.98243e-11
2.98243e-11
2.98243e-11
2.98243e-11
2.98243e-11
2.98244e-11
2.98244e-11
2.98244e-11
2.98244e-11
2.98244e-11
2.98244e-11
2.98245e-11
2.98245e-11
2.98245e-11
2.98245e-11
2.98245e-11
2.98246e-11
2.98246e-11
2.98246e-11
2.98246e-11
2.98246e-11
2.98246e-11
2.98247e-11
2.98247e-11
2.98247e-11
2.98247e-11
2.98247e-11
2.98248e-11
2.98248e-11
2.98248e-11
2.98248e-11
2.98248e-11
2.98249e-11
2.98249e-11
2.98249e-11
2.98249e-11
2.98249e-11
2.9825e-11
2.9825e-11
2.9825e-11
2.9825e-11
2.9825e-11
2.98251e-11
2.98251e-11
2.98251e-11
2.98251e-11
2.98251e-11
2.98252e-11
2.98252e-11
2.98252e-11
2.98252e-11
2.98252e-11
2.98253e-11
2.98253e-11
2.98253e-11
2.98253e-11
2.98253e-11
2.98254e-11
2.98254e-11
2.98254e-11
2.98254e-11
2.98254e-11
2.98255e-11
2.98255e-11
2.98255e-11
2.98255e-11
2.98255e-11
2.98256e-11
2.98256e-11
2.98256e-11
2.98256e-11
2.98256e-11
2.98257e-11
2.98257e-11
2.98257e-11
2.98257e-11
2.98258e-11
2.98258e-11
2.98258e-11
2.98258e-11
2.98258e-11
2.98258e-11
2.98259e-11
2.98259e-11
2.98259e-11
2.98259e-11
2.9826e-11
2.9826e-11
2.9826e-11
2.9826e-11
2.9826e-11
2.98261e-11
2.98261e-11
2.98261e-11
2.98261e-11
2.98261e-11
2.98262e-11
2.98262e-11
2.98262e-11
2.98262e-11
2.98262e-11
2.98263e-11
2.98263e-11
2.98263e-11
2.98263e-11
2.98263e-11
2.98264e-11
2.98264e-11
2.98264e-11
2.98264e-11
2.98265e-11
2.98265e-11
2.98265e-11
2.98265e-11
2.98265e-11
2.98266e-11
2.98266e-11
2.98266e-11
2.98266e-11
2.98266e-11
2.98267e-11
2.98267e-11
2.98267e-11
2.98267e-11
2.98267e-11
2.98268e-11
2.98268e-11
2.98268e-11
2.98268e-11
2.98269e-11
2.98269e-11
2.98269e-11
2.98269e-11
2.98269e-11
2.9827e-11
2.9827e-11
2.9827e-11
2.9827e-11
2.98271e-11
2.98271e-11
2.98271e-11
2.98271e-11
2.98271e-11
2.98272e-11
2.98272e-11
2.98272e-11
2.98272e-11
2.98273e-11
2.98273e-11
2.98273e-11
2.98273e-11
2.98273e-11
2.98274e-11
2.98274e-11
2.98274e-11
2.98274e-11
2.98275e-11
2.98275e-11
2.98275e-11
2.98275e-11
2.98275e-11
2.98276e-11
2.98276e-11
2.98276e-11
2.98276e-11
2.98277e-11
2.98277e-11
2.98277e-11
2.98277e-11
2.98277e-11
2.98278e-11
2.98278e-11
2.98278e-11
2.98278e-11
2.98278e-11
2.98279e-11
2.98279e-11
2.98279e-11
2.98279e-11
2.9828e-11
2.9828e-11
2.9828e-11
2.9828e-11
2.98281e-11
2.98281e-11
2.98281e-11
2.98281e-11
2.98281e-11
2.98282e-11
2.98282e-11
2.98282e-11
2.98282e-11
2.98283e-11
2.98283e-11
2.98283e-11
2.98283e-11
2.98284e-11
2.98284e-11
2.98284e-11
2.98284e-11
2.98285e-11
2.98285e-11
2.98285e-11
2.98285e-11
2.98285e-11
2.98286e-11
2.98286e-11
2.98286e-11
2.98286e-11
2.98287e-11
2.98287e-11
2.98287e-11
2.98287e-11
2.98288e-11
2.98288e-11
2.98288e-11
2.98288e-11
2.98289e-11
2.98289e-11
2.98289e-11
2.98289e-11
2.98289e-11
2.9829e-11
2.9829e-11
2.9829e-11
2.9829e-11
2.98291e-11
2.98291e-11
2.98291e-11
2.98291e-11
2.98292e-11
2.98292e-11
2.98292e-11
2.98292e-11
2.98293e-11
2.98293e-11
2.98293e-11
2.98293e-11
2.98294e-11
2.98294e-11
2.98294e-11
2.98294e-11
2.98295e-11
2.98295e-11
2.98295e-11
2.98295e-11
2.98296e-11
2.98296e-11
2.98296e-11
2.98296e-11
2.98297e-11
2.98297e-11
2.98297e-11
2.98297e-11
2.98298e-11
2.98298e-11
2.98298e-11
2.98298e-11
2.98299e-11
2.98299e-11
2.98299e-11
2.98299e-11
2.983e-11
2.983e-11
2.983e-11
2.983e-11
2.98301e-11
2.98301e-11
2.98301e-11
2.98301e-11
2.98302e-11
2.98302e-11
2.98302e-11
2.98302e-11
2.98303e-11
2.98303e-11
2.98303e-11
2.98303e-11
2.98304e-11
2.98304e-11
2.98304e-11
2.98304e-11
2.98305e-11
2.98305e-11
2.98305e-11
2.98305e-11
2.98306e-11
2.98306e-11
2.98306e-11
2.98306e-11
2.98307e-11
2.98307e-11
2.98307e-11
2.98307e-11
2.98308e-11
2.98308e-11
2.98308e-11
2.98309e-11
2.98309e-11
2.98309e-11
2.98309e-11
2.9831e-11
2.9831e-11
2.9831e-11
2.9831e-11
2.98311e-11
2.98311e-11
2.98311e-11
2.98311e-11
2.98312e-11
2.98312e-11
2.98312e-11
2.98313e-11
2.98313e-11
2.98313e-11
2.98313e-11
2.98314e-11
2.98314e-11
2.98314e-11
2.98314e-11
2.98315e-11
2.98315e-11
2.98315e-11
2.98316e-11
2.98316e-11
2.98316e-11
2.98316e-11
2.98317e-11
2.98317e-11
2.98317e-11
2.98317e-11
2.98318e-11
2.98318e-11
2.98318e-11
2.98319e-11
2.98319e-11
2.98319e-11
2.98319e-11
2.9832e-11
2.9832e-11
2.9832e-11
2.9832e-11
2.98321e-11
2.98321e-11
2.98321e-11
2.98322e-11
2.98322e-11
2.98322e-11
2.98322e-11
2.98323e-11
2.98323e-11
2.98323e-11
2.98324e-11
2.98324e-11
2.98324e-11
2.98324e-11
2.98325e-11
2.98325e-11
2.98325e-11
2.98326e-11
2.98326e-11
2.98326e-11
2.98326e-11
2.98327e-11
2.98327e-11
2.98327e-11
2.98327e-11
2.98328e-11
2.98328e-11
2.98328e-11
2.98329e-11
2.98329e-11
2.98329e-11
2.98329e-11
2.9833e-11
2.9833e-11
2.9833e-11
2.98331e-11
2.98331e-11
2.98331e-11
2.98332e-11
2.98332e-11
2.98332e-11
2.98332e-11
2.98333e-11
2.98333e-11
2.98333e-11
2.98334e-11
2.98334e-11
2.98334e-11
2.98334e-11
2.98335e-11
2.98335e-11
2.98335e-11
2.98336e-11
2.98336e-11
2.98336e-11
2.98337e-11
2.98337e-11
2.98337e-11
2.98337e-11
2.98338e-11
2.98338e-11
2.98338e-11
2.98338e-11
2.98339e-11
2.98339e-11
2.98339e-11
2.9834e-11
2.9834e-11
2.9834e-11
2.98341e-11
2.98341e-11
2.98341e-11
2.98341e-11
2.98342e-11
2.98342e-11
2.98342e-11
2.98343e-11
2.98343e-11
2.98343e-11
2.98344e-11
2.98344e-11
2.98344e-11
2.98344e-11
2.98345e-11
2.98345e-11
2.98345e-11
2.98346e-11
2.98346e-11
2.98346e-11
2.98347e-11
2.98347e-11
2.98347e-11
2.98347e-11
2.98348e-11
2.98348e-11
2.98348e-11
2.98349e-11
2.98349e-11
2.98349e-11
2.9835e-11
2.9835e-11
2.9835e-11
2.9835e-11
2.98351e-11
2.98351e-11
2.98351e-11
2.98352e-11
2.98352e-11
2.98352e-11
2.98353e-11
2.98353e-11
2.98353e-11
2.98353e-11
2.98354e-11
2.98354e-11
2.98354e-11
2.98355e-11
2.98355e-11
2.98355e-11
2.98356e-11
2.98356e-11
)
;

boundaryField
{
    fixedWall
    {
        type            zeroGradient;
    }
    outlet
    {
        type            inletOutlet;
        inletValue      uniform 0;
        value           uniform 2.98356e-11;
    }
    defaultFaces
    {
        type            empty;
    }
}


// ************************************************************************* //
