/*--------------------------------*- C++ -*----------------------------------*\
| =========                 |                                                 |
| \\      /  F ield         | OpenFOAM: The Open Source CFD Toolbox           |
|  \\    /   O peration     | Version:  2406                                  |
|   \\  /    A nd           | Website:  www.openfoam.com                      |
|    \\/     M anipulation  |                                                 |
\*---------------------------------------------------------------------------*/
FoamFile
{
    version     2.0;
    format      ascii;
    arch        "LSB;label=32;scalar=64";
    class       volScalarField;
    location    "0.9";
    object      Qdot;
}
// * * * * * * * * * * * * * * * * * * * * * * * * * * * * * * * * * * * * * //

dimensions      [1 -1 -3 0 0 0 0];

internalField   nonuniform List<scalar> 
1000
(
-9.3805e-08
2.92389e-07
2.43311e-05
0.000367787
0.0025353
0.0108268
0.0336513
0.0836096
0.176101
0.326906
0.549508
0.852907
1.24038
1.70935
2.25219
2.8577
3.51275
4.20387
4.91849
5.64582
6.37721
7.10622
7.82849
8.54137
9.24359
9.93486
10.6156
11.2866
11.9489
12.6037
13.2521
13.8952
14.5341
15.1634
15.7852
16.4209
17.0558
17.6906
18.3265
18.9646
19.6062
20.2527
20.9053
21.5655
22.2346
22.9143
23.606
24.3115
25.0325
25.7708
26.5283
27.3068
28.1084
28.9353
29.7896
30.6735
31.5895
32.54
33.5275
34.5548
35.6246
36.7399
37.9037
39.1192
40.3898
41.7189
43.1104
44.5682
46.0963
47.6993
49.382
51.1493
53.0067
54.9603
57.0164
59.1821
61.4652
63.8742
66.4187
69.1091
71.9571
74.976
78.1803
81.5865
85.2128
89.0795
93.1754
97.5165
102.285
107.405
112.91
118.844
125.229
131.988
139.47
147.613
156.493
166.194
176.814
188.47
201.3
215.463
231.15
248.583
268.025
289.791
314.254
341.867
373.177
408.858
449.741
496.866
551.544
615.452
690.753
780.271
887.744
1018.18
1178.41
1377.85
1629.79
1953.28
2376.35
2941.52
3715.77
4809.06
6409.55
8854.3
12786
19543.4
32215.6
58582.1
119649
279057
772123
2.52422e+06
9.70441e+06
2.36384e+07
212580
699.408
4.78599
0.129586
0.0130153
0.00336876
0.00157653
0.00103998
0.000830697
0.000736267
0.000690387
0.000667127
0.000654999
0.000648724
0.000645434
0.00064365
0.000642631
0.000642162
0.000641876
0.000641795
0.000641716
0.000641674
0.000641652
0.000641641
0.000641635
0.000641633
0.000641703
0.000641632
0.000641632
0.000641633
0.000641704
0.000641634
0.000641635
0.000641707
0.000641637
0.000641638
0.000641639
0.00064164
0.00064164
0.000641642
0.000641642
0.000641643
0.000641644
0.000641645
0.000641646
0.000641647
0.000641648
0.000641649
0.00064165
0.000641651
0.000641651
0.000641653
0.000641653
0.000641654
0.000641726
0.000641656
0.000641657
0.000641728
0.000641659
0.00064166
0.000641661
0.000641662
0.000641662
0.000641663
0.000641664
0.000641665
0.000641666
0.000641667
0.000641668
0.000641669
0.00064167
0.000641741
0.000641672
0.000641743
0.000641674
0.000641675
0.000641676
0.000641747
0.000641678
0.000641678
0.000641679
0.00064168
0.000641752
0.000641682
0.000641683
0.000641684
0.000641756
0.000641686
0.000641687
0.000641688
0.000641689
0.00064169
0.000641761
0.000641692
0.000641693
0.000641694
0.000641695
0.000641695
0.000641696
0.000641768
0.000641698
0.000641699
0.0006417
0.000641701
0.000641702
0.000641703
0.000641704
0.000641705
0.000641705
0.000641706
0.000641707
0.000641708
0.000641709
0.00064171
0.000641711
0.000641712
0.000641783
0.000641714
0.000641785
0.000641716
0.000641787
0.000641717
0.000641718
0.000641719
0.00064179
0.000641721
0.000641792
0.000641723
0.000641794
0.000641795
0.000641726
0.000641797
0.000641727
0.000641799
0.000641729
0.00064173
0.000641731
0.000641732
0.000641803
0.000641734
0.000641805
0.000641806
0.000641736
0.000641737
0.000641738
0.000641739
0.00064174
0.000641741
0.000641741
0.000641742
0.000641743
0.000641744
0.000641745
0.000641746
0.000641747
0.000641748
0.000641748
0.00064175
0.000641821
0.000641822
0.000641752
0.000641824
0.000641824
0.000641755
0.000641826
0.000641757
0.000641828
0.000641829
0.000641759
0.00064176
0.000641761
0.000641832
0.000641763
0.000641763
0.000641764
0.000641765
0.000641766
0.000641767
0.000641768
0.000641839
0.00064184
0.00064177
0.000641842
0.000641772
0.000641773
0.000641844
0.000641845
0.000641776
0.000641776
0.000641777
0.000641778
0.000641779
0.00064178
0.000641851
0.000641782
0.000641853
0.000641783
0.000641855
0.000641785
0.000641786
0.000641787
0.000641858
0.000641789
0.00064179
0.000641861
0.000641791
0.000641792
0.000641864
0.000641794
0.000641865
0.000641796
0.000641867
0.000641797
0.000641798
0.000641799
0.0006418
0.000641801
0.000641802
0.000641803
0.000641803
0.000641804
0.000641805
0.000641806
0.000641807
0.000641808
0.000641809
0.00064181
0.000641811
0.000641811
0.000641812
0.000641813
0.000641814
0.000641886
0.000641886
0.000641817
0.000641818
0.000641818
0.000641819
0.00064182
0.000641892
0.000641822
0.000641823
0.000641824
0.000641895
0.000641896
0.000641826
0.000641898
0.000641899
0.000641829
0.000641901
0.000641831
0.000641832
0.000641833
0.000641834
0.000641835
0.000641836
0.000641836
0.000641837
0.000641838
0.00064191
0.00064184
0.000641911
0.000641842
0.000641913
0.000641844
0.000641844
0.000641846
0.000641846
0.000641847
0.000641848
0.000641849
0.00064185
0.000641851
0.000641852
0.000641923
0.000641854
0.000641855
0.000641855
0.000641857
0.000641857
0.000641858
0.000641859
0.00064186
0.000641861
0.000641862
0.000641863
0.000641934
0.000641865
0.000641866
0.000641867
0.000641868
0.000641939
0.00064187
0.000641941
0.000641871
0.000641943
0.000641873
0.000641945
0.000641875
0.000641876
0.000641877
0.000641878
0.000641879
0.00064188
0.000641881
0.000641952
0.000641883
0.000641884
0.000641884
0.000641956
0.000641886
0.000641958
0.000641888
0.000641889
0.00064189
0.000641962
0.000641892
0.000641893
0.000641894
0.000641895
0.000641896
0.000641897
0.000641898
0.000641899
0.00064197
0.000641901
0.000641902
0.000641903
0.000641904
0.000641905
0.000641905
0.000641906
0.000641978
0.000641979
0.00064198
0.000641911
0.000641912
0.000641913
0.000641914
0.000641914
0.000641915
0.000641987
0.000641988
0.000641989
0.000641919
0.000641991
0.000641921
0.000641922
0.000641923
0.000641924
0.000641925
0.000641997
0.000641927
0.000641928
0.000641929
0.00064193
0.000641931
0.000642002
0.000641933
0.000641934
0.000642006
0.000641936
0.000641937
0.000641938
0.000641939
0.000641869
0.00064187
0.000641871
0.000641872
0.000641873
0.000641874
0.000641875
0.000641876
0.000641877
0.000641949
0.000641879
0.00064188
0.000641881
0.000641882
0.000641954
0.000641955
0.000641956
0.000641886
0.000641958
0.000641959
0.00064196
0.00064189
0.000641891
0.000641892
0.000641893
0.000641894
0.000641895
0.000641896
0.000641968
0.000641969
0.000641899
0.0006419
0.000641901
0.000641902
0.000641903
0.000641975
0.000641976
0.000641906
0.000641907
0.000641908
0.00064198
0.000641981
0.000641911
0.000641912
0.000641913
0.000641914
0.000641915
0.000641916
0.000641917
0.000641918
0.00064199
0.000641921
0.000641992
0.000641923
0.000641923
0.000641924
0.000641996
0.000641926
0.000641928
0.000641999
0.00064193
0.000641931
0.000641932
0.000642003
0.000641934
0.000641935
0.000642006
0.000641937
0.000641938
0.000641939
0.00064194
0.000641941
0.000641942
0.000641943
0.000641944
0.000641945
0.000642017
0.000641947
0.000642018
0.000642019
0.00064195
0.000641951
0.000641952
0.000641953
0.000641954
0.000641955
0.000642027
0.000642028
0.000641958
0.000641959
0.00064196
0.000642032
0.000641962
0.000642034
0.000642035
0.000642036
0.000642037
0.000641967
0.000642039
0.00064204
0.000642041
0.000641972
0.000641972
0.000641973
0.000642045
0.000641976
0.000641977
0.000642048
0.000641979
0.00064198
0.000642052
0.000642052
0.000642053
0.000641984
0.000641985
0.000642057
0.000642058
0.000641988
0.00064206
0.000642061
0.000642062
0.000641992
0.000641993
0.000642065
0.000642066
0.000641996
0.000641997
0.000641999
0.000641999
0.000642
0.000642002
0.000642003
0.000642004
0.000642005
0.000642006
0.000642007
0.000642008
0.000642009
0.00064208
0.000642011
0.000642012
0.000642083
0.000642084
0.000642015
0.000642016
0.000642087
0.000642089
0.000642019
0.00064202
0.000642022
0.000642093
0.000642094
0.000642025
0.000642026
0.000642026
0.000642028
0.000642099
0.00064203
0.000642101
0.000642032
0.000642033
0.000642034
0.000642035
0.000642036
0.000642037
0.000642038
0.000642039
0.000642111
0.000642112
0.000642113
0.000642114
0.000642115
0.000642046
0.000642117
0.000642118
0.000642049
0.00064205
0.000642121
0.000642052
0.000642053
0.000642054
0.000642055
0.000642056
0.000642057
0.000642058
0.00064213
0.00064206
0.000642062
0.000642062
0.000642064
0.000642065
0.000642136
0.000642067
0.000642068
0.000642139
0.00064207
0.000642142
0.000642143
0.000642144
0.000642074
0.000642146
0.000642147
0.000642077
0.000642078
0.00064208
0.000642151
0.000642082
0.000642153
0.000642154
0.000642085
0.000642086
0.000642087
0.000642088
0.000642089
0.000642161
0.000642091
0.000642092
0.000642164
0.000642094
0.000642096
0.000642097
0.000642098
0.000642099
0.000642171
0.000642101
0.000642102
0.000642103
0.000642104
0.000642105
0.000642177
0.000642107
0.000642179
0.00064218
0.000642111
0.000642112
0.000642113
0.000642114
0.000642115
0.000642116
0.000642188
0.000642189
0.00064212
0.000642121
0.000642192
0.000642193
0.000642194
0.000642196
0.000642126
0.000642127
0.000642128
0.0006422
0.00064213
0.000642131
0.000642203
0.000642204
0.000642135
0.000642136
0.000642137
0.000642209
0.000642139
0.00064214
0.000642141
0.000642142
0.000642144
0.000642145
0.000642216
0.000642147
0.000642148
0.000642149
0.00064215
0.000642151
0.000642153
0.000642153
0.000642226
0.000642156
0.000642227
0.000642158
0.000642159
0.00064216
0.000642161
0.000642233
0.000642164
0.000642165
0.000642236
0.000642237
0.000642238
0.000642169
0.000642241
0.000642171
0.000642243
0.000642174
0.000642245
0.000642176
0.000642177
0.000642178
0.000642179
0.00064218
0.000642181
0.000642253
0.000642184
0.000642185
0.000642256
0.000642187
0.000642259
0.000642189
0.00064219
0.000642192
0.000642193
0.000642264
0.000642265
0.000642196
0.000642197
0.000642198
0.0006422
0.000642271
0.000642272
0.000642203
0.000642204
0.000642205
0.000642277
0.000642208
0.000642209
0.00064221
0.000642211
0.000642212
0.000642284
0.000642285
0.000642286
0.000642217
0.000642288
0.000642219
0.00064222
0.000642292
0.000642222
0.000642224
0.000642224
0.000642226
0.000642227
0.000642299
0.000642229
0.00064223
0.000642302
0.000642233
0.000642305
0.000642306
0.000642307
0.000642238
0.000642309
0.00064224
0.000642241
0.000642242
0.000642243
0.000642244
0.000642316
0.000642317
0.000642248
0.00064232
0.000642321
0.000642251
0.000642252
0.000642324
0.000642255
0.000642256
0.000642257
0.000642329
0.000642259
0.00064226
0.000642262
0.000642263
0.000642335
0.000642265
0.000642267
0.000642268
0.00064234
0.00064227
0.000642342
0.000642272
0.000642344
0.000642275
0.000642276
0.000642277
0.000642278
0.00064228
0.000642281
0.000642282
0.000642283
0.000642355
0.000642356
0.000642357
0.000642288
0.000642289
0.00064229
0.000642291
0.000642293
0.000642294
0.000642295
0.000642367
0.000642368
0.000642369
0.0006423
0.000642301
0.000642302
0.000642303
0.000642304
0.000642306
0.000642307
0.000642308
0.000642309
0.000642381
0.000642312
0.000642313
0.000642314
0.000642315
0.000642316
0.000642318
0.000642319
0.00064232
0.000642392
0.000642322
0.000642323
0.000642324
0.000642326
0.000642327
0.000642328
0.0006424
0.000642331
0.000642332
0.000642333
0.000642334
0.000642336
0.000642337
0.000642338
0.00064241
0.000642341
0.000642342
0.000642343
0.000642344
0.000642416
0.000642346
0.000642348
0.000642349
0.00064235
0.000642351
0.000642353
0.000642424
0.000642355
0.000642356
0.000642428
0.000642429
0.00064236
0.000642361
0.000642362
0.000642364
0.000642365
0.000642366
0.000642438
0.000642369
0.00064237
0.000642371
0.000642372
0.000642444
0.000642446
0.000642376
0.000642377
0.000642449
0.000642379
0.000642381
0.000642382
0.000642383
0.000642455
0.000642386
0.000642387
0.000642388
0.00064246
0.000642461
0.000642392
0.000642393
0.000642465
0.000642395
0.000642467
0.000642468
0.000642399
0.0006424
0.000642402
0.000642473
0.000642404
0.000642476
0.000642406
0.000642478
0.000642409
0.00064241
0.000642411
0.000642413
0.000642484
0.000642486
0.000642416
0.000642417
)
;

boundaryField
{
    fixedWall
    {
        type            calculated;
        value           uniform 0;
    }
    outlet
    {
        type            calculated;
        value           uniform 0;
    }
    defaultFaces
    {
        type            empty;
    }
}


// ************************************************************************* //
