/*--------------------------------*- C++ -*----------------------------------*\
| =========                 |                                                 |
| \\      /  F ield         | OpenFOAM: The Open Source CFD Toolbox           |
|  \\    /   O peration     | Version:  2406                                  |
|   \\  /    A nd           | Website:  www.openfoam.com                      |
|    \\/     M anipulation  |                                                 |
\*---------------------------------------------------------------------------*/
FoamFile
{
    version     2.0;
    format      ascii;
    arch        "LSB;label=32;scalar=64";
    class       volScalarField;
    location    "14.5";
    object      O2;
}
// * * * * * * * * * * * * * * * * * * * * * * * * * * * * * * * * * * * * * //

dimensions      [0 0 0 0 0 0 0];

internalField   nonuniform List<scalar> 
1000
(
9.91157e-07
9.89849e-07
9.87443e-07
9.84094e-07
9.79926e-07
9.75036e-07
9.69504e-07
9.63399e-07
9.56777e-07
9.49688e-07
9.42175e-07
9.34275e-07
9.26024e-07
9.17452e-07
9.08586e-07
8.99451e-07
8.90072e-07
8.80468e-07
8.70661e-07
8.60668e-07
8.50507e-07
8.40193e-07
8.29742e-07
8.19168e-07
8.08485e-07
7.97705e-07
7.86841e-07
7.75905e-07
7.64907e-07
7.53859e-07
7.42771e-07
7.31653e-07
7.20515e-07
7.09367e-07
6.98217e-07
6.87075e-07
6.75949e-07
6.64847e-07
6.53779e-07
6.42752e-07
6.31774e-07
6.20852e-07
6.09994e-07
5.99208e-07
5.885e-07
5.77876e-07
5.67344e-07
5.5691e-07
5.4658e-07
5.36359e-07
5.26253e-07
5.16268e-07
5.06408e-07
4.96677e-07
4.87081e-07
4.77623e-07
4.68306e-07
4.59136e-07
4.50114e-07
4.41243e-07
4.32527e-07
4.23966e-07
4.15564e-07
4.07322e-07
3.99241e-07
3.91322e-07
3.83567e-07
3.75975e-07
3.68547e-07
3.61283e-07
3.54183e-07
3.47247e-07
3.40473e-07
3.33862e-07
3.27412e-07
3.21121e-07
3.1499e-07
3.09015e-07
3.03195e-07
2.9753e-07
2.92016e-07
2.86651e-07
2.81435e-07
2.76363e-07
2.71435e-07
2.66647e-07
2.61998e-07
2.57484e-07
2.53104e-07
2.48854e-07
2.44732e-07
2.40735e-07
2.36862e-07
2.33108e-07
2.29471e-07
2.2595e-07
2.2254e-07
2.19239e-07
2.16046e-07
2.12956e-07
2.09968e-07
2.07078e-07
2.04285e-07
2.01585e-07
1.98977e-07
1.96457e-07
1.94024e-07
1.91674e-07
1.89406e-07
1.87217e-07
1.85105e-07
1.83068e-07
1.81103e-07
1.79209e-07
1.77382e-07
1.75622e-07
1.73926e-07
1.72292e-07
1.70719e-07
1.69203e-07
1.67744e-07
1.6634e-07
1.64989e-07
1.63689e-07
1.62439e-07
1.61236e-07
1.6008e-07
1.58969e-07
1.57902e-07
1.56876e-07
1.55891e-07
1.54945e-07
1.54037e-07
1.53165e-07
1.52329e-07
1.51526e-07
1.50757e-07
1.50019e-07
1.49312e-07
1.48635e-07
1.47986e-07
1.47365e-07
1.4677e-07
1.46201e-07
1.45656e-07
1.45135e-07
1.44637e-07
1.44162e-07
1.43707e-07
1.43273e-07
1.42859e-07
1.42464e-07
1.42087e-07
1.41728e-07
1.41386e-07
1.4106e-07
1.4075e-07
1.40456e-07
1.40175e-07
1.39909e-07
1.39656e-07
1.39417e-07
1.39189e-07
1.38974e-07
1.38771e-07
1.38578e-07
1.38396e-07
1.38225e-07
1.38063e-07
1.37911e-07
1.37768e-07
1.37633e-07
1.37507e-07
1.37389e-07
1.37279e-07
1.37177e-07
1.37081e-07
1.36993e-07
1.36911e-07
1.36835e-07
1.36766e-07
1.36702e-07
1.36644e-07
1.36591e-07
1.36543e-07
1.36501e-07
1.36463e-07
1.36429e-07
1.36401e-07
1.36376e-07
1.36355e-07
1.36338e-07
1.36325e-07
1.36315e-07
1.36309e-07
1.36305e-07
1.36305e-07
1.36308e-07
1.36314e-07
1.36323e-07
1.36334e-07
1.36348e-07
1.36364e-07
1.36382e-07
1.36403e-07
1.36425e-07
1.3645e-07
1.36477e-07
1.36505e-07
1.36535e-07
1.36567e-07
1.36601e-07
1.36636e-07
1.36673e-07
1.36711e-07
1.3675e-07
1.36791e-07
1.36833e-07
1.36876e-07
1.3692e-07
1.36966e-07
1.37012e-07
1.3706e-07
1.37108e-07
1.37157e-07
1.37208e-07
1.37259e-07
1.3731e-07
1.37363e-07
1.37416e-07
1.3747e-07
1.37525e-07
1.3758e-07
1.37636e-07
1.37692e-07
1.37749e-07
1.37806e-07
1.37865e-07
1.37923e-07
1.37982e-07
1.38041e-07
1.38101e-07
1.38161e-07
1.38222e-07
1.38283e-07
1.38344e-07
1.38406e-07
1.38468e-07
1.3853e-07
1.38593e-07
1.38656e-07
1.38719e-07
1.38783e-07
1.38846e-07
1.3891e-07
1.38974e-07
1.39039e-07
1.39103e-07
1.39168e-07
1.39233e-07
1.39298e-07
1.39364e-07
1.39429e-07
1.39495e-07
1.39561e-07
1.39627e-07
1.39693e-07
1.39759e-07
1.39825e-07
1.39892e-07
1.39959e-07
1.40025e-07
1.40092e-07
1.40159e-07
1.40226e-07
1.40294e-07
1.40361e-07
1.40428e-07
1.40496e-07
1.40564e-07
1.40631e-07
1.40699e-07
1.40767e-07
1.40835e-07
1.40903e-07
1.40971e-07
1.41039e-07
1.41108e-07
1.41176e-07
1.41244e-07
1.41313e-07
1.41381e-07
1.4145e-07
1.41519e-07
1.41588e-07
1.41657e-07
1.41725e-07
1.41794e-07
1.41864e-07
1.41933e-07
1.42002e-07
1.42071e-07
1.42141e-07
1.4221e-07
1.42279e-07
1.42349e-07
1.42418e-07
1.42488e-07
1.42558e-07
1.42628e-07
1.42697e-07
1.42767e-07
1.42837e-07
1.42907e-07
1.42977e-07
1.43047e-07
1.43117e-07
1.43188e-07
1.43258e-07
1.43328e-07
1.43399e-07
1.43469e-07
1.4354e-07
1.43611e-07
1.43681e-07
1.43752e-07
1.43823e-07
1.43894e-07
1.43965e-07
1.44036e-07
1.44107e-07
1.44178e-07
1.44249e-07
1.4432e-07
1.44391e-07
1.44463e-07
1.44534e-07
1.44606e-07
1.44677e-07
1.44749e-07
1.44821e-07
1.44892e-07
1.44964e-07
1.45036e-07
1.45108e-07
1.4518e-07
1.45252e-07
1.45324e-07
1.45396e-07
1.45469e-07
1.45541e-07
1.45613e-07
1.45686e-07
1.45759e-07
1.45831e-07
1.45904e-07
1.45977e-07
1.4605e-07
1.46123e-07
1.46196e-07
1.46269e-07
1.46342e-07
1.46415e-07
1.46488e-07
1.46562e-07
1.46635e-07
1.46709e-07
1.46782e-07
1.46856e-07
1.4693e-07
1.47003e-07
1.47077e-07
1.47151e-07
1.47225e-07
1.47299e-07
1.47374e-07
1.47448e-07
1.47522e-07
1.47597e-07
1.47671e-07
1.47746e-07
1.47821e-07
1.47895e-07
1.4797e-07
1.48045e-07
1.4812e-07
1.48195e-07
1.4827e-07
1.48345e-07
1.48421e-07
1.48496e-07
1.48571e-07
1.48647e-07
1.48723e-07
1.48798e-07
1.48874e-07
1.4895e-07
1.49026e-07
1.49102e-07
1.49178e-07
1.49254e-07
1.4933e-07
1.49407e-07
1.49483e-07
1.49559e-07
1.49636e-07
1.49713e-07
1.49789e-07
1.49866e-07
1.49943e-07
1.5002e-07
1.50097e-07
1.50174e-07
1.50252e-07
1.50329e-07
1.50406e-07
1.50484e-07
1.50561e-07
1.50639e-07
1.50717e-07
1.50794e-07
1.50872e-07
1.5095e-07
1.51028e-07
1.51106e-07
1.51185e-07
1.51263e-07
1.51341e-07
1.5142e-07
1.51498e-07
1.51577e-07
1.51656e-07
1.51734e-07
1.51813e-07
1.51892e-07
1.51971e-07
1.5205e-07
1.52129e-07
1.52209e-07
1.52288e-07
1.52368e-07
1.52447e-07
1.52527e-07
1.52606e-07
1.52686e-07
1.52766e-07
1.52846e-07
1.52926e-07
1.53006e-07
1.53086e-07
1.53167e-07
1.53247e-07
1.53328e-07
1.53408e-07
1.53489e-07
1.5357e-07
1.5365e-07
1.53731e-07
1.53812e-07
1.53893e-07
1.53974e-07
1.54056e-07
1.54137e-07
1.54218e-07
1.543e-07
1.54381e-07
1.54463e-07
1.54545e-07
1.54627e-07
1.54709e-07
1.54791e-07
1.54873e-07
1.54955e-07
1.55037e-07
1.5512e-07
1.55202e-07
1.55285e-07
1.55367e-07
1.5545e-07
1.55533e-07
1.55616e-07
1.55699e-07
1.55782e-07
1.55865e-07
1.55949e-07
1.56032e-07
1.56115e-07
1.56199e-07
1.56282e-07
1.56366e-07
1.5645e-07
1.56534e-07
1.56618e-07
1.56702e-07
1.56786e-07
1.5687e-07
1.56955e-07
1.57039e-07
1.57124e-07
1.57208e-07
1.57293e-07
1.57378e-07
1.57463e-07
1.57548e-07
1.57633e-07
1.57718e-07
1.57803e-07
1.57889e-07
1.57974e-07
1.5806e-07
1.58145e-07
1.58231e-07
1.58317e-07
1.58403e-07
1.58489e-07
1.58575e-07
1.58661e-07
1.58747e-07
1.58834e-07
1.5892e-07
1.59007e-07
1.59093e-07
1.5918e-07
1.59267e-07
1.59354e-07
1.59441e-07
1.59528e-07
1.59615e-07
1.59703e-07
1.5979e-07
1.59878e-07
1.59965e-07
1.60053e-07
1.60141e-07
1.60229e-07
1.60317e-07
1.60405e-07
1.60493e-07
1.60581e-07
1.6067e-07
1.60758e-07
1.60847e-07
1.60935e-07
1.61024e-07
1.61113e-07
1.61202e-07
1.61291e-07
1.6138e-07
1.61469e-07
1.61559e-07
1.61648e-07
1.61738e-07
1.61827e-07
1.61917e-07
1.62007e-07
1.62097e-07
1.62187e-07
1.62277e-07
1.62367e-07
1.62457e-07
1.62548e-07
1.62638e-07
1.62729e-07
1.6282e-07
1.62911e-07
1.63002e-07
1.63093e-07
1.63184e-07
1.63275e-07
1.63366e-07
1.63458e-07
1.63549e-07
1.63641e-07
1.63733e-07
1.63825e-07
1.63917e-07
1.64009e-07
1.64101e-07
1.64193e-07
1.64286e-07
1.64378e-07
1.64471e-07
1.64563e-07
1.64656e-07
1.64749e-07
1.64842e-07
1.64935e-07
1.65029e-07
1.65122e-07
1.65215e-07
1.65309e-07
1.65402e-07
1.65496e-07
1.6559e-07
1.65684e-07
1.65778e-07
1.65872e-07
1.65967e-07
1.66061e-07
1.66156e-07
1.6625e-07
1.66345e-07
1.6644e-07
1.66535e-07
1.6663e-07
1.66725e-07
1.6682e-07
1.66916e-07
1.67011e-07
1.67107e-07
1.67202e-07
1.67298e-07
1.67394e-07
1.6749e-07
1.67586e-07
1.67683e-07
1.67779e-07
1.67876e-07
1.67972e-07
1.68069e-07
1.68166e-07
1.68263e-07
1.6836e-07
1.68457e-07
1.68554e-07
1.68652e-07
1.68749e-07
1.68847e-07
1.68945e-07
1.69042e-07
1.6914e-07
1.69238e-07
1.69337e-07
1.69435e-07
1.69533e-07
1.69632e-07
1.69731e-07
1.69829e-07
1.69928e-07
1.70027e-07
1.70126e-07
1.70226e-07
1.70325e-07
1.70424e-07
1.70524e-07
1.70624e-07
1.70724e-07
1.70824e-07
1.70924e-07
1.71024e-07
1.71124e-07
1.71224e-07
1.71325e-07
1.71426e-07
1.71526e-07
1.71627e-07
1.71728e-07
1.71829e-07
1.71931e-07
1.72032e-07
1.72134e-07
1.72235e-07
1.72337e-07
1.72439e-07
1.7254e-07
1.72642e-07
1.72744e-07
1.72847e-07
1.72949e-07
1.73052e-07
1.73154e-07
1.73257e-07
1.7336e-07
1.73463e-07
1.73566e-07
1.73669e-07
1.73773e-07
1.73876e-07
1.7398e-07
1.74084e-07
1.74188e-07
1.74292e-07
1.74395e-07
1.74499e-07
1.74604e-07
1.74708e-07
1.74813e-07
1.74917e-07
1.75022e-07
1.75127e-07
1.75232e-07
1.75337e-07
1.75443e-07
1.75548e-07
1.75654e-07
1.75759e-07
1.75865e-07
1.75971e-07
1.76077e-07
1.76184e-07
1.7629e-07
1.76396e-07
1.76503e-07
1.7661e-07
1.76717e-07
1.76824e-07
1.76931e-07
1.77038e-07
1.77146e-07
1.77253e-07
1.77361e-07
1.77469e-07
1.77577e-07
1.77685e-07
1.77793e-07
1.77902e-07
1.7801e-07
1.78119e-07
1.78228e-07
1.78337e-07
1.78446e-07
1.78556e-07
1.78665e-07
1.78775e-07
1.78885e-07
1.78995e-07
1.79105e-07
1.79215e-07
1.79326e-07
1.79437e-07
1.79548e-07
1.79659e-07
1.7977e-07
1.79882e-07
1.79993e-07
1.80105e-07
1.80218e-07
1.8033e-07
1.80443e-07
1.80555e-07
1.80668e-07
1.80782e-07
1.80895e-07
1.81009e-07
1.81123e-07
1.81238e-07
1.81352e-07
1.81467e-07
1.81583e-07
1.81698e-07
1.81814e-07
1.8193e-07
1.82047e-07
1.82164e-07
1.82281e-07
1.82399e-07
1.82518e-07
1.82636e-07
1.82755e-07
1.82875e-07
1.82995e-07
1.83116e-07
1.83237e-07
1.83359e-07
1.83482e-07
1.83605e-07
1.83729e-07
1.83853e-07
1.83979e-07
1.84105e-07
1.84232e-07
1.8436e-07
1.84489e-07
1.84618e-07
1.84749e-07
1.84881e-07
1.85014e-07
1.85149e-07
1.85284e-07
1.85421e-07
1.8556e-07
1.857e-07
1.85841e-07
1.85984e-07
1.86129e-07
1.86276e-07
1.86425e-07
1.86576e-07
1.86729e-07
1.86884e-07
1.87042e-07
1.87203e-07
1.87366e-07
1.87532e-07
1.87701e-07
1.87874e-07
1.88049e-07
1.88229e-07
1.88412e-07
1.88599e-07
1.8879e-07
1.88986e-07
1.89186e-07
1.89392e-07
1.89602e-07
1.89818e-07
1.9004e-07
1.90268e-07
1.90502e-07
1.90742e-07
1.9099e-07
1.91246e-07
1.91509e-07
1.9178e-07
1.9206e-07
1.9235e-07
1.92648e-07
1.92957e-07
1.93277e-07
1.93607e-07
1.9395e-07
1.94304e-07
1.94672e-07
1.95053e-07
1.95448e-07
1.95858e-07
1.96284e-07
1.96726e-07
1.97186e-07
1.97663e-07
1.9816e-07
1.98676e-07
1.99213e-07
1.99772e-07
2.00354e-07
2.00959e-07
2.0159e-07
2.02247e-07
2.02931e-07
2.03643e-07
2.04386e-07
2.0516e-07
2.05966e-07
2.06807e-07
2.07683e-07
2.08597e-07
2.09549e-07
2.10542e-07
2.11577e-07
2.12657e-07
2.13782e-07
2.14956e-07
2.16179e-07
2.17454e-07
2.18784e-07
2.2017e-07
2.21615e-07
2.23121e-07
2.24691e-07
2.26327e-07
2.28032e-07
2.29808e-07
2.31658e-07
2.33585e-07
2.35592e-07
2.37683e-07
2.39859e-07
2.42125e-07
2.44483e-07
2.46937e-07
2.4949e-07
2.52146e-07
2.54908e-07
2.5778e-07
2.60766e-07
2.6387e-07
2.67094e-07
2.70444e-07
2.73924e-07
2.77536e-07
2.81286e-07
2.85178e-07
2.89215e-07
2.93402e-07
2.97744e-07
3.02244e-07
3.06907e-07
3.11737e-07
3.16738e-07
3.21915e-07
3.27272e-07
3.32813e-07
3.38543e-07
3.44464e-07
3.50582e-07
3.56899e-07
3.6342e-07
3.70148e-07
3.77087e-07
3.84239e-07
3.91608e-07
3.99196e-07
4.07005e-07
4.15037e-07
4.23294e-07
4.31777e-07
4.40487e-07
4.49424e-07
4.58587e-07
4.67977e-07
4.7759e-07
4.87426e-07
4.97481e-07
5.07752e-07
5.18234e-07
5.28921e-07
5.39809e-07
5.50888e-07
5.62152e-07
5.7359e-07
5.85193e-07
5.96948e-07
6.08843e-07
6.20863e-07
6.32993e-07
6.45217e-07
6.57516e-07
6.6987e-07
6.82259e-07
6.94661e-07
7.0705e-07
7.19403e-07
7.31692e-07
7.43889e-07
7.55965e-07
7.6789e-07
7.7963e-07
7.91154e-07
8.02426e-07
8.13412e-07
8.24074e-07
8.34377e-07
8.44282e-07
8.5375e-07
8.62744e-07
8.71223e-07
8.79148e-07
8.86481e-07
8.93182e-07
8.99212e-07
9.04533e-07
9.09107e-07
9.12897e-07
9.15867e-07
9.17982e-07
9.19202e-07
9.19502e-07
9.18856e-07
9.17228e-07
9.14592e-07
9.10921e-07
9.06192e-07
9.00383e-07
8.93474e-07
8.85448e-07
8.76288e-07
8.65983e-07
8.54521e-07
8.41896e-07
8.281e-07
8.13133e-07
7.96993e-07
7.79685e-07
7.61215e-07
7.41593e-07
7.20832e-07
6.9895e-07
6.75966e-07
6.51908e-07
6.26805e-07
6.00691e-07
5.73607e-07
5.45599e-07
5.16719e-07
4.87027e-07
4.56589e-07
4.25478e-07
3.93779e-07
3.61584e-07
3.28997e-07
2.9613e-07
2.63111e-07
2.3008e-07
1.97189e-07
1.64605e-07
1.32511e-07
1.01106e-07
7.06001e-08
4.12202e-08
1.32031e-08
)
;

boundaryField
{
    fixedWall
    {
        type            zeroGradient;
    }
    outlet
    {
        type            inletOutlet;
        inletValue      uniform 0;
        value           uniform 0;
    }
    defaultFaces
    {
        type            empty;
    }
}


// ************************************************************************* //
