/*--------------------------------*- C++ -*----------------------------------*\
| =========                 |                                                 |
| \\      /  F ield         | OpenFOAM: The Open Source CFD Toolbox           |
|  \\    /   O peration     | Version:  2406                                  |
|   \\  /    A nd           | Website:  www.openfoam.com                      |
|    \\/     M anipulation  |                                                 |
\*---------------------------------------------------------------------------*/
FoamFile
{
    version     2.0;
    format      ascii;
    arch        "LSB;label=32;scalar=64";
    class       volScalarField;
    location    "14.5";
    object      T;
}
// * * * * * * * * * * * * * * * * * * * * * * * * * * * * * * * * * * * * * //

dimensions      [0 0 0 1 0 0 0];

internalField   nonuniform List<scalar> 
1000
(
303.608
323.412
341.952
359.406
375.912
391.579
406.498
420.742
434.375
447.448
460.008
472.093
483.74
494.977
505.832
516.328
526.488
536.33
545.872
555.129
564.116
572.846
581.331
589.582
597.61
605.423
613.03
620.439
627.659
634.696
641.556
648.246
654.772
661.139
667.352
673.416
679.335
685.115
690.758
696.27
701.654
706.913
712.05
717.069
721.974
726.766
731.45
736.027
740.5
744.871
749.144
753.321
757.403
761.393
765.293
769.105
772.831
776.474
780.034
783.513
786.914
790.238
793.487
796.661
799.764
802.796
805.759
808.655
811.484
814.248
816.948
819.586
822.164
824.681
827.14
829.542
831.887
834.178
836.414
838.598
840.73
842.811
844.843
846.827
848.762
850.651
852.494
854.293
856.048
857.76
859.429
861.058
862.646
864.195
865.706
867.178
868.613
870.013
871.376
872.705
874
875.262
876.491
877.688
878.854
879.99
881.096
882.172
883.221
884.241
885.234
886.2
887.14
888.055
888.945
889.811
890.653
891.471
892.267
893.041
893.793
894.524
895.234
895.924
896.595
897.246
897.879
898.493
899.09
899.669
900.231
900.776
901.306
901.819
902.318
902.801
903.27
903.725
904.165
904.593
905.007
905.408
905.797
906.174
906.539
906.893
907.235
907.567
907.888
908.199
908.5
908.791
909.072
909.345
909.608
909.863
910.109
910.347
910.578
910.8
911.015
911.223
911.424
911.617
911.805
911.985
912.16
912.328
912.491
912.648
912.799
912.945
913.086
913.221
913.352
913.478
913.6
913.717
913.83
913.938
914.043
914.144
914.241
914.334
914.424
914.511
914.594
914.674
914.751
914.825
914.896
914.964
915.03
915.093
915.154
915.212
915.268
915.322
915.374
915.423
915.471
915.517
915.56
915.602
915.643
915.681
915.718
915.754
915.788
915.821
915.852
915.882
915.91
915.938
915.964
915.989
916.013
916.036
916.058
916.079
916.099
916.119
916.137
916.155
916.171
916.187
916.203
916.217
916.231
916.244
916.257
916.269
916.281
916.292
916.302
916.312
916.321
916.33
916.339
916.347
916.355
916.363
916.37
916.376
916.383
916.389
916.394
916.4
916.405
916.41
916.415
916.419
916.423
916.428
916.431
916.435
916.438
916.442
916.445
916.448
916.45
916.453
916.455
916.458
916.46
916.462
916.464
916.466
916.468
916.469
916.471
916.472
916.474
916.475
916.476
916.477
916.479
916.48
916.481
916.482
916.482
916.483
916.484
916.485
916.485
916.486
916.487
916.487
916.488
916.488
916.489
916.489
916.49
916.49
916.491
916.491
916.491
916.492
916.492
916.492
916.493
916.493
916.493
916.494
916.494
916.494
916.494
916.494
916.495
916.495
916.495
916.495
916.495
916.496
916.496
916.496
916.496
916.496
916.497
916.497
916.497
916.497
916.497
916.497
916.498
916.498
916.498
916.498
916.498
916.498
916.498
916.499
916.499
916.499
916.499
916.499
916.499
916.5
916.5
916.5
916.5
916.5
916.5
916.501
916.501
916.501
916.501
916.501
916.501
916.501
916.502
916.502
916.502
916.502
916.502
916.502
916.503
916.503
916.503
916.503
916.503
916.503
916.504
916.504
916.504
916.504
916.504
916.504
916.505
916.505
916.505
916.505
916.505
916.505
916.506
916.506
916.506
916.506
916.506
916.506
916.506
916.507
916.507
916.507
916.507
916.507
916.507
916.507
916.508
916.508
916.508
916.508
916.508
916.508
916.508
916.508
916.509
916.509
916.509
916.509
916.509
916.509
916.509
916.509
916.51
916.51
916.51
916.51
916.51
916.51
916.51
916.51
916.51
916.511
916.511
916.511
916.511
916.511
916.511
916.511
916.511
916.511
916.511
916.511
916.512
916.512
916.512
916.512
916.512
916.512
916.512
916.512
916.512
916.512
916.512
916.512
916.512
916.513
916.513
916.513
916.513
916.513
916.513
916.513
916.513
916.513
916.513
916.513
916.513
916.513
916.513
916.513
916.513
916.514
916.514
916.514
916.514
916.514
916.514
916.514
916.514
916.514
916.514
916.514
916.514
916.514
916.514
916.514
916.514
916.514
916.514
916.514
916.514
916.514
916.514
916.514
916.515
916.515
916.515
916.515
916.515
916.515
916.515
916.515
916.515
916.515
916.515
916.515
916.515
916.515
916.515
916.515
916.515
916.515
916.515
916.515
916.515
916.515
916.515
916.515
916.515
916.515
916.515
916.515
916.515
916.515
916.515
916.515
916.515
916.515
916.516
916.516
916.516
916.516
916.516
916.516
916.516
916.516
916.516
916.516
916.516
916.516
916.516
916.516
916.516
916.516
916.516
916.516
916.516
916.516
916.516
916.516
916.516
916.516
916.516
916.516
916.516
916.516
916.516
916.516
916.516
916.516
916.516
916.516
916.516
916.516
916.516
916.516
916.517
916.517
916.517
916.517
916.517
916.517
916.517
916.517
916.517
916.517
916.517
916.517
916.517
916.517
916.517
916.517
916.517
916.517
916.517
916.517
916.517
916.517
916.517
916.517
916.517
916.517
916.517
916.517
916.517
916.517
916.517
916.517
916.517
916.517
916.517
916.517
916.517
916.517
916.518
916.518
916.518
916.518
916.518
916.518
916.518
916.518
916.518
916.518
916.518
916.518
916.518
916.518
916.518
916.518
916.518
916.518
916.518
916.518
916.518
916.518
916.518
916.518
916.518
916.518
916.518
916.518
916.518
916.518
916.518
916.518
916.518
916.518
916.518
916.518
916.518
916.518
916.518
916.518
916.518
916.518
916.518
916.518
916.518
916.518
916.518
916.518
916.518
916.518
916.518
916.518
916.518
916.518
916.518
916.518
916.518
916.518
916.518
916.518
916.518
916.518
916.518
916.518
916.518
916.518
916.518
916.518
916.518
916.518
916.518
916.518
916.518
916.518
916.518
916.518
916.518
916.518
916.518
916.518
916.518
916.518
916.518
916.518
916.518
916.518
916.518
916.518
916.518
916.518
916.518
916.518
916.518
916.518
916.518
916.518
916.518
916.518
916.518
916.518
916.518
916.518
916.518
916.518
916.518
916.518
916.518
916.518
916.518
916.518
916.518
916.518
916.518
916.518
916.518
916.518
916.518
916.518
916.518
916.518
916.518
916.517
916.517
916.517
916.517
916.517
916.517
916.516
916.516
916.516
916.516
916.515
916.515
916.515
916.515
916.514
916.514
916.513
916.513
916.512
916.512
916.511
916.511
916.51
916.509
916.509
916.508
916.507
916.506
916.505
916.504
916.503
916.502
916.501
916.499
916.498
916.496
916.495
916.493
916.491
916.489
916.487
916.485
916.482
916.48
916.477
916.474
916.471
916.468
916.464
916.46
916.457
916.452
916.448
916.443
916.438
916.433
916.427
916.421
916.415
916.408
916.401
916.394
916.386
916.377
916.368
916.359
916.349
916.338
916.327
916.315
916.303
916.289
916.275
916.261
916.245
916.229
916.211
916.193
916.174
916.153
916.132
916.109
916.086
916.061
916.034
916.006
915.977
915.947
915.914
915.88
915.845
915.807
915.768
915.726
915.683
915.637
915.589
915.539
915.486
915.431
915.373
915.313
915.249
915.183
915.113
915.04
914.964
914.884
914.801
914.714
914.622
914.527
914.428
914.324
914.215
914.102
913.984
913.861
913.733
913.599
913.459
913.314
913.163
913.005
912.841
912.67
912.492
912.308
912.116
911.916
911.708
911.493
911.269
911.037
910.795
910.545
910.285
910.016
909.736
909.447
909.147
908.836
908.514
908.181
907.836
907.479
907.109
906.727
906.332
905.924
905.502
905.066
904.615
904.15
903.67
903.174
902.663
902.135
901.591
901.03
900.451
899.855
899.241
898.608
897.956
897.285
896.594
895.883
895.151
894.399
893.624
892.828
892.01
891.169
890.304
889.416
888.503
887.566
886.603
885.615
884.6
883.559
882.491
881.394
880.27
879.116
877.933
876.72
875.476
874.201
872.895
871.555
870.183
868.777
867.336
865.861
864.349
862.801
861.216
859.592
857.93
856.228
854.485
852.701
850.875
849.006
847.093
845.134
843.13
841.078
838.978
836.829
834.629
832.378
830.074
827.715
825.302
822.831
820.302
817.714
815.064
812.351
809.574
806.73
803.819
800.838
797.785
794.659
791.456
788.176
784.816
781.373
777.846
774.232
770.527
766.73
762.839
758.849
754.758
750.563
746.26
741.848
737.321
732.677
727.912
723.023
718.004
712.854
707.582
702.201
696.63
690.909
685.035
679.003
672.808
666.446
659.911
653.2
646.307
639.227
631.956
624.49
616.824
608.953
600.874
592.582
584.075
575.349
566.402
557.231
547.835
538.214
528.367
518.297
508.005
497.496
486.774
475.845
464.719
453.406
441.919
430.271
418.48
406.566
394.552
382.463
370.328
358.18
346.055
333.993
322.038
310.239
298.649
)
;

boundaryField
{
    fixedWall
    {
        type            fixedValue;
        value           uniform 293;
    }
    outlet
    {
        type            inletOutlet;
        inletValue      uniform 293;
        value           uniform 293;
    }
    defaultFaces
    {
        type            empty;
    }
}


// ************************************************************************* //
