/*--------------------------------*- C++ -*----------------------------------*\
| =========                 |                                                 |
| \\      /  F ield         | OpenFOAM: The Open Source CFD Toolbox           |
|  \\    /   O peration     | Version:  2406                                  |
|   \\  /    A nd           | Website:  www.openfoam.com                      |
|    \\/     M anipulation  |                                                 |
\*---------------------------------------------------------------------------*/
FoamFile
{
    version     2.0;
    format      ascii;
    arch        "LSB;label=32;scalar=64";
    class       volVectorField;
    location    "14.5";
    object      U;
}
// * * * * * * * * * * * * * * * * * * * * * * * * * * * * * * * * * * * * * //

dimensions      [0 1 -1 0 0 0 0];

internalField   nonuniform List<vector> 
1000
(
(-5.45559e-07 0 0)
(-2.6476e-06 0 0)
(-6.88083e-06 0 0)
(-1.27887e-05 0 0)
(-2.00215e-05 0 0)
(-2.83654e-05 0 0)
(-3.76659e-05 0 0)
(-4.77992e-05 0 0)
(-5.86547e-05 0 0)
(-7.01397e-05 0 0)
(-8.21785e-05 0 0)
(-9.47014e-05 0 0)
(-0.000107652 0 0)
(-0.000120979 0 0)
(-0.000134637 0 0)
(-0.000148585 0 0)
(-0.000162791 0 0)
(-0.000177221 0 0)
(-0.000191846 0 0)
(-0.000206643 0 0)
(-0.000221587 0 0)
(-0.000236657 0 0)
(-0.000251835 0 0)
(-0.000267101 0 0)
(-0.000282441 0 0)
(-0.000297839 0 0)
(-0.000313281 0 0)
(-0.000328755 0 0)
(-0.000344248 0 0)
(-0.00035975 0 0)
(-0.00037525 0 0)
(-0.000390738 0 0)
(-0.000406206 0 0)
(-0.000421645 0 0)
(-0.000437049 0 0)
(-0.000452407 0 0)
(-0.000467715 0 0)
(-0.000482965 0 0)
(-0.000498152 0 0)
(-0.000513268 0 0)
(-0.000528311 0 0)
(-0.000543272 0 0)
(-0.000558149 0 0)
(-0.000572936 0 0)
(-0.000587629 0 0)
(-0.000602225 0 0)
(-0.000616719 0 0)
(-0.000631107 0 0)
(-0.000645386 0 0)
(-0.000659553 0 0)
(-0.000673606 0 0)
(-0.00068754 0 0)
(-0.000701354 0 0)
(-0.000715045 0 0)
(-0.000728611 0 0)
(-0.000742049 0 0)
(-0.000755358 0 0)
(-0.000768534 0 0)
(-0.000781579 0 0)
(-0.000794488 0 0)
(-0.000807261 0 0)
(-0.000819895 0 0)
(-0.000832391 0 0)
(-0.000844747 0 0)
(-0.000856961 0 0)
(-0.000869033 0 0)
(-0.000880962 0 0)
(-0.000892747 0 0)
(-0.000904387 0 0)
(-0.000915883 0 0)
(-0.000927233 0 0)
(-0.000938436 0 0)
(-0.000949494 0 0)
(-0.000960404 0 0)
(-0.000971167 0 0)
(-0.000981784 0 0)
(-0.000992254 0 0)
(-0.00100258 0 0)
(-0.00101275 0 0)
(-0.00102278 0 0)
(-0.00103267 0 0)
(-0.0010424 0 0)
(-0.00105199 0 0)
(-0.00106144 0 0)
(-0.00107074 0 0)
(-0.0010799 0 0)
(-0.00108891 0 0)
(-0.00109778 0 0)
(-0.00110651 0 0)
(-0.0011151 0 0)
(-0.00112354 0 0)
(-0.00113185 0 0)
(-0.00114001 0 0)
(-0.00114804 0 0)
(-0.00115593 0 0)
(-0.00116368 0 0)
(-0.0011713 0 0)
(-0.00117878 0 0)
(-0.00118613 0 0)
(-0.00119335 0 0)
(-0.00120043 0 0)
(-0.00120738 0 0)
(-0.00121421 0 0)
(-0.00122091 0 0)
(-0.00122748 0 0)
(-0.00123393 0 0)
(-0.00124025 0 0)
(-0.00124645 0 0)
(-0.00125253 0 0)
(-0.00125848 0 0)
(-0.00126432 0 0)
(-0.00127004 0 0)
(-0.00127565 0 0)
(-0.00128114 0 0)
(-0.00128651 0 0)
(-0.00129178 0 0)
(-0.00129693 0 0)
(-0.00130198 0 0)
(-0.00130692 0 0)
(-0.00131175 0 0)
(-0.00131647 0 0)
(-0.0013211 0 0)
(-0.00132562 0 0)
(-0.00133004 0 0)
(-0.00133436 0 0)
(-0.00133858 0 0)
(-0.00134271 0 0)
(-0.00134674 0 0)
(-0.00135068 0 0)
(-0.00135453 0 0)
(-0.00135829 0 0)
(-0.00136196 0 0)
(-0.00136554 0 0)
(-0.00136904 0 0)
(-0.00137245 0 0)
(-0.00137578 0 0)
(-0.00137902 0 0)
(-0.00138219 0 0)
(-0.00138528 0 0)
(-0.00138829 0 0)
(-0.00139123 0 0)
(-0.00139409 0 0)
(-0.00139687 0 0)
(-0.00139959 0 0)
(-0.00140224 0 0)
(-0.00140481 0 0)
(-0.00140732 0 0)
(-0.00140977 0 0)
(-0.00141214 0 0)
(-0.00141446 0 0)
(-0.00141671 0 0)
(-0.0014189 0 0)
(-0.00142103 0 0)
(-0.0014231 0 0)
(-0.00142512 0 0)
(-0.00142708 0 0)
(-0.00142898 0 0)
(-0.00143083 0 0)
(-0.00143263 0 0)
(-0.00143437 0 0)
(-0.00143607 0 0)
(-0.00143772 0 0)
(-0.00143932 0 0)
(-0.00144087 0 0)
(-0.00144238 0 0)
(-0.00144384 0 0)
(-0.00144526 0 0)
(-0.00144663 0 0)
(-0.00144797 0 0)
(-0.00144926 0 0)
(-0.00145052 0 0)
(-0.00145173 0 0)
(-0.00145291 0 0)
(-0.00145405 0 0)
(-0.00145516 0 0)
(-0.00145623 0 0)
(-0.00145727 0 0)
(-0.00145828 0 0)
(-0.00145925 0 0)
(-0.00146019 0 0)
(-0.0014611 0 0)
(-0.00146199 0 0)
(-0.00146284 0 0)
(-0.00146366 0 0)
(-0.00146445 0 0)
(-0.00146522 0 0)
(-0.00146597 0 0)
(-0.00146668 0 0)
(-0.00146738 0 0)
(-0.00146805 0 0)
(-0.00146871 0 0)
(-0.00146934 0 0)
(-0.00146994 0 0)
(-0.00147053 0 0)
(-0.00147109 0 0)
(-0.00147163 0 0)
(-0.00147216 0 0)
(-0.00147267 0 0)
(-0.00147315 0 0)
(-0.00147362 0 0)
(-0.00147408 0 0)
(-0.00147451 0 0)
(-0.00147494 0 0)
(-0.00147535 0 0)
(-0.00147574 0 0)
(-0.00147612 0 0)
(-0.00147649 0 0)
(-0.00147684 0 0)
(-0.00147718 0 0)
(-0.0014775 0 0)
(-0.00147782 0 0)
(-0.00147812 0 0)
(-0.00147841 0 0)
(-0.00147868 0 0)
(-0.00147895 0 0)
(-0.00147921 0 0)
(-0.00147946 0 0)
(-0.00147969 0 0)
(-0.00147992 0 0)
(-0.00148014 0 0)
(-0.00148035 0 0)
(-0.00148055 0 0)
(-0.00148075 0 0)
(-0.00148094 0 0)
(-0.00148111 0 0)
(-0.00148129 0 0)
(-0.00148145 0 0)
(-0.00148161 0 0)
(-0.00148176 0 0)
(-0.00148191 0 0)
(-0.00148204 0 0)
(-0.00148218 0 0)
(-0.0014823 0 0)
(-0.00148243 0 0)
(-0.00148254 0 0)
(-0.00148265 0 0)
(-0.00148276 0 0)
(-0.00148287 0 0)
(-0.00148296 0 0)
(-0.00148306 0 0)
(-0.00148315 0 0)
(-0.00148324 0 0)
(-0.00148332 0 0)
(-0.0014834 0 0)
(-0.00148347 0 0)
(-0.00148354 0 0)
(-0.00148361 0 0)
(-0.00148368 0 0)
(-0.00148374 0 0)
(-0.0014838 0 0)
(-0.00148386 0 0)
(-0.00148391 0 0)
(-0.00148396 0 0)
(-0.00148401 0 0)
(-0.00148406 0 0)
(-0.0014841 0 0)
(-0.00148414 0 0)
(-0.00148418 0 0)
(-0.00148422 0 0)
(-0.00148426 0 0)
(-0.00148429 0 0)
(-0.00148433 0 0)
(-0.00148436 0 0)
(-0.00148439 0 0)
(-0.00148442 0 0)
(-0.00148444 0 0)
(-0.00148447 0 0)
(-0.00148449 0 0)
(-0.00148452 0 0)
(-0.00148454 0 0)
(-0.00148456 0 0)
(-0.00148458 0 0)
(-0.0014846 0 0)
(-0.00148462 0 0)
(-0.00148463 0 0)
(-0.00148465 0 0)
(-0.00148466 0 0)
(-0.00148468 0 0)
(-0.00148469 0 0)
(-0.0014847 0 0)
(-0.00148472 0 0)
(-0.00148473 0 0)
(-0.00148474 0 0)
(-0.00148475 0 0)
(-0.00148476 0 0)
(-0.00148477 0 0)
(-0.00148477 0 0)
(-0.00148478 0 0)
(-0.00148479 0 0)
(-0.0014848 0 0)
(-0.0014848 0 0)
(-0.00148481 0 0)
(-0.00148481 0 0)
(-0.00148482 0 0)
(-0.00148482 0 0)
(-0.00148483 0 0)
(-0.00148483 0 0)
(-0.00148484 0 0)
(-0.00148484 0 0)
(-0.00148484 0 0)
(-0.00148485 0 0)
(-0.00148485 0 0)
(-0.00148485 0 0)
(-0.00148485 0 0)
(-0.00148486 0 0)
(-0.00148486 0 0)
(-0.00148486 0 0)
(-0.00148486 0 0)
(-0.00148486 0 0)
(-0.00148487 0 0)
(-0.00148487 0 0)
(-0.00148487 0 0)
(-0.00148487 0 0)
(-0.00148487 0 0)
(-0.00148487 0 0)
(-0.00148487 0 0)
(-0.00148487 0 0)
(-0.00148487 0 0)
(-0.00148487 0 0)
(-0.00148487 0 0)
(-0.00148487 0 0)
(-0.00148488 0 0)
(-0.00148488 0 0)
(-0.00148488 0 0)
(-0.00148488 0 0)
(-0.00148487 0 0)
(-0.00148488 0 0)
(-0.00148488 0 0)
(-0.00148488 0 0)
(-0.00148488 0 0)
(-0.00148488 0 0)
(-0.00148488 0 0)
(-0.00148488 0 0)
(-0.00148488 0 0)
(-0.00148487 0 0)
(-0.00148488 0 0)
(-0.00148487 0 0)
(-0.00148487 0 0)
(-0.00148487 0 0)
(-0.00148487 0 0)
(-0.00148487 0 0)
(-0.00148487 0 0)
(-0.00148487 0 0)
(-0.00148487 0 0)
(-0.00148487 0 0)
(-0.00148487 0 0)
(-0.00148487 0 0)
(-0.00148487 0 0)
(-0.00148487 0 0)
(-0.00148487 0 0)
(-0.00148487 0 0)
(-0.00148487 0 0)
(-0.00148487 0 0)
(-0.00148487 0 0)
(-0.00148487 0 0)
(-0.00148487 0 0)
(-0.00148487 0 0)
(-0.00148487 0 0)
(-0.00148487 0 0)
(-0.00148487 0 0)
(-0.00148487 0 0)
(-0.00148487 0 0)
(-0.00148487 0 0)
(-0.00148487 0 0)
(-0.00148487 0 0)
(-0.00148487 0 0)
(-0.00148487 0 0)
(-0.00148487 0 0)
(-0.00148487 0 0)
(-0.00148487 0 0)
(-0.00148487 0 0)
(-0.00148487 0 0)
(-0.00148487 0 0)
(-0.00148487 0 0)
(-0.00148487 0 0)
(-0.00148487 0 0)
(-0.00148487 0 0)
(-0.00148487 0 0)
(-0.00148487 0 0)
(-0.00148488 0 0)
(-0.00148487 0 0)
(-0.00148487 0 0)
(-0.00148488 0 0)
(-0.00148488 0 0)
(-0.00148488 0 0)
(-0.00148488 0 0)
(-0.00148488 0 0)
(-0.00148488 0 0)
(-0.00148488 0 0)
(-0.00148488 0 0)
(-0.00148488 0 0)
(-0.00148488 0 0)
(-0.00148488 0 0)
(-0.00148488 0 0)
(-0.00148488 0 0)
(-0.00148488 0 0)
(-0.00148488 0 0)
(-0.00148488 0 0)
(-0.00148488 0 0)
(-0.00148488 0 0)
(-0.00148488 0 0)
(-0.00148488 0 0)
(-0.00148488 0 0)
(-0.00148488 0 0)
(-0.00148488 0 0)
(-0.00148488 0 0)
(-0.00148488 0 0)
(-0.00148488 0 0)
(-0.00148488 0 0)
(-0.00148488 0 0)
(-0.00148488 0 0)
(-0.00148488 0 0)
(-0.00148488 0 0)
(-0.00148488 0 0)
(-0.00148489 0 0)
(-0.00148488 0 0)
(-0.00148489 0 0)
(-0.00148489 0 0)
(-0.00148489 0 0)
(-0.00148489 0 0)
(-0.00148489 0 0)
(-0.00148489 0 0)
(-0.00148489 0 0)
(-0.00148489 0 0)
(-0.00148489 0 0)
(-0.00148489 0 0)
(-0.00148489 0 0)
(-0.00148489 0 0)
(-0.00148489 0 0)
(-0.00148489 0 0)
(-0.00148489 0 0)
(-0.00148489 0 0)
(-0.00148489 0 0)
(-0.00148489 0 0)
(-0.00148489 0 0)
(-0.00148489 0 0)
(-0.00148489 0 0)
(-0.00148489 0 0)
(-0.00148489 0 0)
(-0.00148489 0 0)
(-0.00148489 0 0)
(-0.00148489 0 0)
(-0.00148489 0 0)
(-0.00148489 0 0)
(-0.00148489 0 0)
(-0.00148489 0 0)
(-0.00148489 0 0)
(-0.00148489 0 0)
(-0.00148489 0 0)
(-0.00148489 0 0)
(-0.00148489 0 0)
(-0.00148489 0 0)
(-0.00148489 0 0)
(-0.00148489 0 0)
(-0.00148489 0 0)
(-0.00148489 0 0)
(-0.00148489 0 0)
(-0.00148489 0 0)
(-0.00148489 0 0)
(-0.00148489 0 0)
(-0.00148489 0 0)
(-0.00148489 0 0)
(-0.00148489 0 0)
(-0.00148489 0 0)
(-0.0014849 0 0)
(-0.00148489 0 0)
(-0.00148489 0 0)
(-0.00148489 0 0)
(-0.00148489 0 0)
(-0.00148489 0 0)
(-0.0014849 0 0)
(-0.00148489 0 0)
(-0.0014849 0 0)
(-0.0014849 0 0)
(-0.00148489 0 0)
(-0.0014849 0 0)
(-0.00148489 0 0)
(-0.0014849 0 0)
(-0.00148489 0 0)
(-0.0014849 0 0)
(-0.00148489 0 0)
(-0.0014849 0 0)
(-0.0014849 0 0)
(-0.00148489 0 0)
(-0.0014849 0 0)
(-0.00148489 0 0)
(-0.0014849 0 0)
(-0.0014849 0 0)
(-0.0014849 0 0)
(-0.0014849 0 0)
(-0.0014849 0 0)
(-0.0014849 0 0)
(-0.0014849 0 0)
(-0.0014849 0 0)
(-0.0014849 0 0)
(-0.00148489 0 0)
(-0.0014849 0 0)
(-0.00148489 0 0)
(-0.0014849 0 0)
(-0.00148489 0 0)
(-0.00148489 0 0)
(-0.00148489 0 0)
(-0.00148489 0 0)
(-0.0014849 0 0)
(-0.00148489 0 0)
(-0.00148489 0 0)
(-0.00148489 0 0)
(-0.0014849 0 0)
(-0.00148489 0 0)
(-0.0014849 0 0)
(-0.00148489 0 0)
(-0.00148489 0 0)
(-0.00148489 0 0)
(-0.00148489 0 0)
(-0.0014849 0 0)
(-0.00148489 0 0)
(-0.0014849 0 0)
(-0.00148489 0 0)
(-0.00148489 0 0)
(-0.00148489 0 0)
(-0.00148489 0 0)
(-0.00148489 0 0)
(-0.00148489 0 0)
(-0.00148489 0 0)
(-0.00148489 0 0)
(-0.00148489 0 0)
(-0.00148489 0 0)
(-0.00148489 0 0)
(-0.00148489 0 0)
(-0.00148489 0 0)
(-0.00148489 0 0)
(-0.00148489 0 0)
(-0.00148489 0 0)
(-0.00148489 0 0)
(-0.00148489 0 0)
(-0.00148489 0 0)
(-0.00148489 0 0)
(-0.00148489 0 0)
(-0.00148489 0 0)
(-0.00148489 0 0)
(-0.00148489 0 0)
(-0.00148489 0 0)
(-0.00148489 0 0)
(-0.00148489 0 0)
(-0.00148489 0 0)
(-0.00148489 0 0)
(-0.00148489 0 0)
(-0.00148489 0 0)
(-0.00148489 0 0)
(-0.00148489 0 0)
(-0.00148489 0 0)
(-0.00148489 0 0)
(-0.00148489 0 0)
(-0.00148489 0 0)
(-0.00148489 0 0)
(-0.00148489 0 0)
(-0.00148489 0 0)
(-0.00148489 0 0)
(-0.00148489 0 0)
(-0.00148489 0 0)
(-0.00148489 0 0)
(-0.00148489 0 0)
(-0.00148489 0 0)
(-0.00148489 0 0)
(-0.00148489 0 0)
(-0.00148489 0 0)
(-0.00148489 0 0)
(-0.00148489 0 0)
(-0.00148489 0 0)
(-0.00148489 0 0)
(-0.00148489 0 0)
(-0.00148489 0 0)
(-0.00148489 0 0)
(-0.00148489 0 0)
(-0.00148489 0 0)
(-0.00148489 0 0)
(-0.00148489 0 0)
(-0.00148489 0 0)
(-0.00148489 0 0)
(-0.00148489 0 0)
(-0.00148489 0 0)
(-0.00148489 0 0)
(-0.00148489 0 0)
(-0.00148489 0 0)
(-0.00148489 0 0)
(-0.00148489 0 0)
(-0.00148489 0 0)
(-0.00148489 0 0)
(-0.00148489 0 0)
(-0.00148489 0 0)
(-0.00148489 0 0)
(-0.00148489 0 0)
(-0.00148489 0 0)
(-0.00148489 0 0)
(-0.00148489 0 0)
(-0.00148489 0 0)
(-0.00148489 0 0)
(-0.00148489 0 0)
(-0.00148489 0 0)
(-0.00148489 0 0)
(-0.00148489 0 0)
(-0.00148489 0 0)
(-0.00148489 0 0)
(-0.00148489 0 0)
(-0.00148489 0 0)
(-0.00148489 0 0)
(-0.00148489 0 0)
(-0.00148489 0 0)
(-0.00148489 0 0)
(-0.00148489 0 0)
(-0.00148489 0 0)
(-0.00148489 0 0)
(-0.00148489 0 0)
(-0.00148489 0 0)
(-0.00148489 0 0)
(-0.00148489 0 0)
(-0.00148489 0 0)
(-0.00148489 0 0)
(-0.00148489 0 0)
(-0.00148489 0 0)
(-0.00148489 0 0)
(-0.00148489 0 0)
(-0.00148489 0 0)
(-0.00148489 0 0)
(-0.00148489 0 0)
(-0.00148489 0 0)
(-0.00148489 0 0)
(-0.00148489 0 0)
(-0.00148489 0 0)
(-0.00148489 0 0)
(-0.00148489 0 0)
(-0.00148489 0 0)
(-0.00148489 0 0)
(-0.00148489 0 0)
(-0.00148489 0 0)
(-0.00148489 0 0)
(-0.00148489 0 0)
(-0.00148489 0 0)
(-0.00148489 0 0)
(-0.00148489 0 0)
(-0.00148489 0 0)
(-0.00148489 0 0)
(-0.00148489 0 0)
(-0.00148489 0 0)
(-0.00148489 0 0)
(-0.00148489 0 0)
(-0.00148489 0 0)
(-0.00148489 0 0)
(-0.00148489 0 0)
(-0.00148489 0 0)
(-0.00148489 0 0)
(-0.00148489 0 0)
(-0.00148488 0 0)
(-0.00148489 0 0)
(-0.00148489 0 0)
(-0.00148489 0 0)
(-0.00148489 0 0)
(-0.00148489 0 0)
(-0.00148489 0 0)
(-0.00148488 0 0)
(-0.00148489 0 0)
(-0.00148488 0 0)
(-0.00148489 0 0)
(-0.00148489 0 0)
(-0.00148488 0 0)
(-0.00148489 0 0)
(-0.00148488 0 0)
(-0.00148489 0 0)
(-0.00148488 0 0)
(-0.00148489 0 0)
(-0.00148488 0 0)
(-0.00148488 0 0)
(-0.00148488 0 0)
(-0.00148488 0 0)
(-0.00148489 0 0)
(-0.00148488 0 0)
(-0.00148489 0 0)
(-0.00148488 0 0)
(-0.00148489 0 0)
(-0.00148488 0 0)
(-0.00148489 0 0)
(-0.00148488 0 0)
(-0.00148489 0 0)
(-0.00148489 0 0)
(-0.00148489 0 0)
(-0.00148489 0 0)
(-0.00148489 0 0)
(-0.00148489 0 0)
(-0.00148489 0 0)
(-0.00148489 0 0)
(-0.00148489 0 0)
(-0.00148489 0 0)
(-0.00148489 0 0)
(-0.00148489 0 0)
(-0.00148489 0 0)
(-0.00148489 0 0)
(-0.00148489 0 0)
(-0.0014849 0 0)
(-0.0014849 0 0)
(-0.0014849 0 0)
(-0.0014849 0 0)
(-0.0014849 0 0)
(-0.0014849 0 0)
(-0.0014849 0 0)
(-0.00148491 0 0)
(-0.00148491 0 0)
(-0.00148491 0 0)
(-0.00148491 0 0)
(-0.00148491 0 0)
(-0.00148492 0 0)
(-0.00148492 0 0)
(-0.00148492 0 0)
(-0.00148493 0 0)
(-0.00148493 0 0)
(-0.00148493 0 0)
(-0.00148494 0 0)
(-0.00148494 0 0)
(-0.00148495 0 0)
(-0.00148495 0 0)
(-0.00148496 0 0)
(-0.00148496 0 0)
(-0.00148497 0 0)
(-0.00148498 0 0)
(-0.00148498 0 0)
(-0.00148499 0 0)
(-0.001485 0 0)
(-0.00148501 0 0)
(-0.00148502 0 0)
(-0.00148503 0 0)
(-0.00148504 0 0)
(-0.00148505 0 0)
(-0.00148506 0 0)
(-0.00148508 0 0)
(-0.00148509 0 0)
(-0.0014851 0 0)
(-0.00148512 0 0)
(-0.00148514 0 0)
(-0.00148515 0 0)
(-0.00148517 0 0)
(-0.00148519 0 0)
(-0.00148521 0 0)
(-0.00148524 0 0)
(-0.00148526 0 0)
(-0.00148529 0 0)
(-0.00148531 0 0)
(-0.00148534 0 0)
(-0.00148537 0 0)
(-0.0014854 0 0)
(-0.00148544 0 0)
(-0.00148547 0 0)
(-0.00148551 0 0)
(-0.00148555 0 0)
(-0.0014856 0 0)
(-0.00148564 0 0)
(-0.00148569 0 0)
(-0.00148574 0 0)
(-0.0014858 0 0)
(-0.00148586 0 0)
(-0.00148592 0 0)
(-0.00148598 0 0)
(-0.00148605 0 0)
(-0.00148612 0 0)
(-0.0014862 0 0)
(-0.00148628 0 0)
(-0.00148637 0 0)
(-0.00148646 0 0)
(-0.00148656 0 0)
(-0.00148666 0 0)
(-0.00148677 0 0)
(-0.00148688 0 0)
(-0.001487 0 0)
(-0.00148713 0 0)
(-0.00148726 0 0)
(-0.0014874 0 0)
(-0.00148755 0 0)
(-0.0014877 0 0)
(-0.00148787 0 0)
(-0.00148804 0 0)
(-0.00148822 0 0)
(-0.00148842 0 0)
(-0.00148862 0 0)
(-0.00148883 0 0)
(-0.00148905 0 0)
(-0.00148929 0 0)
(-0.00148954 0 0)
(-0.0014898 0 0)
(-0.00149007 0 0)
(-0.00149036 0 0)
(-0.00149066 0 0)
(-0.00149098 0 0)
(-0.00149131 0 0)
(-0.00149166 0 0)
(-0.00149203 0 0)
(-0.00149241 0 0)
(-0.00149282 0 0)
(-0.00149324 0 0)
(-0.00149368 0 0)
(-0.00149415 0 0)
(-0.00149463 0 0)
(-0.00149514 0 0)
(-0.00149568 0 0)
(-0.00149623 0 0)
(-0.00149682 0 0)
(-0.00149743 0 0)
(-0.00149806 0 0)
(-0.00149873 0 0)
(-0.00149943 0 0)
(-0.00150016 0 0)
(-0.00150092 0 0)
(-0.00150171 0 0)
(-0.00150254 0 0)
(-0.0015034 0 0)
(-0.00150431 0 0)
(-0.00150525 0 0)
(-0.00150623 0 0)
(-0.00150725 0 0)
(-0.00150831 0 0)
(-0.00150942 0 0)
(-0.00151058 0 0)
(-0.00151178 0 0)
(-0.00151303 0 0)
(-0.00151433 0 0)
(-0.00151568 0 0)
(-0.00151709 0 0)
(-0.00151855 0 0)
(-0.00152007 0 0)
(-0.00152165 0 0)
(-0.00152329 0 0)
(-0.00152499 0 0)
(-0.00152676 0 0)
(-0.00152859 0 0)
(-0.00153049 0 0)
(-0.00153246 0 0)
(-0.00153451 0 0)
(-0.00153662 0 0)
(-0.00153882 0 0)
(-0.00154109 0 0)
(-0.00154344 0 0)
(-0.00154587 0 0)
(-0.00154839 0 0)
(-0.001551 0 0)
(-0.00155369 0 0)
(-0.00155648 0 0)
(-0.00155935 0 0)
(-0.00156233 0 0)
(-0.0015654 0 0)
(-0.00156857 0 0)
(-0.00157184 0 0)
(-0.00157522 0 0)
(-0.0015787 0 0)
(-0.00158229 0 0)
(-0.00158599 0 0)
(-0.00158981 0 0)
(-0.00159374 0 0)
(-0.00159779 0 0)
(-0.00160195 0 0)
(-0.00160624 0 0)
(-0.00161066 0 0)
(-0.0016152 0 0)
(-0.00161986 0 0)
(-0.00162466 0 0)
(-0.00162959 0 0)
(-0.00163466 0 0)
(-0.00163986 0 0)
(-0.0016452 0 0)
(-0.00165068 0 0)
(-0.0016563 0 0)
(-0.00166207 0 0)
(-0.00166798 0 0)
(-0.00167404 0 0)
(-0.00168025 0 0)
(-0.00168661 0 0)
(-0.00169312 0 0)
(-0.00169979 0 0)
(-0.00170661 0 0)
(-0.00171359 0 0)
(-0.00172072 0 0)
(-0.00172801 0 0)
(-0.00173546 0 0)
(-0.00174307 0 0)
(-0.00175085 0 0)
(-0.00175878 0 0)
(-0.00176688 0 0)
(-0.00177514 0 0)
(-0.00178356 0 0)
(-0.00179214 0 0)
(-0.00180089 0 0)
(-0.0018098 0 0)
(-0.00181888 0 0)
(-0.00182811 0 0)
(-0.00183751 0 0)
(-0.00184706 0 0)
(-0.00185678 0 0)
(-0.00186666 0 0)
(-0.00187669 0 0)
(-0.00188688 0 0)
(-0.00189722 0 0)
(-0.00190771 0 0)
(-0.00191836 0 0)
(-0.00192915 0 0)
(-0.00194009 0 0)
(-0.00195117 0 0)
(-0.00196239 0 0)
(-0.00197374 0 0)
(-0.00198523 0 0)
(-0.00199685 0 0)
(-0.00200859 0 0)
(-0.00202045 0 0)
(-0.00203243 0 0)
(-0.00204452 0 0)
(-0.00205672 0 0)
(-0.00206901 0 0)
(-0.0020814 0 0)
(-0.00209389 0 0)
(-0.00210645 0 0)
(-0.00211909 0 0)
(-0.0021318 0 0)
(-0.00214458 0 0)
(-0.00215741 0 0)
(-0.00217028 0 0)
(-0.0021832 0 0)
(-0.00219614 0 0)
(-0.00220911 0 0)
(-0.00222208 0 0)
(-0.00223506 0 0)
(-0.00224803 0 0)
(-0.00226099 0 0)
(-0.00227391 0 0)
(-0.00228679 0 0)
(-0.00229962 0 0)
(-0.00231239 0 0)
(-0.00232508 0 0)
(-0.00233767 0 0)
(-0.00235017 0 0)
(-0.00236254 0 0)
(-0.00237479 0 0)
(-0.00238688 0 0)
(-0.00239882 0 0)
(-0.00241057 0 0)
(-0.00242212 0 0)
(-0.00243347 0 0)
(-0.00244458 0 0)
(-0.00245544 0 0)
(-0.00246603 0 0)
(-0.00247633 0 0)
(-0.00248632 0 0)
(-0.00249598 0 0)
(-0.00250528 0 0)
(-0.00251421 0 0)
(-0.00252274 0 0)
(-0.00253085 0 0)
(-0.00253851 0 0)
(-0.0025457 0 0)
(-0.00255242 0 0)
(-0.00255864 0 0)
(-0.00256432 0 0)
(-0.00256935 0 0)
(-0.0025737 0 0)
(-0.00257737 0 0)
(-0.00258037 0 0)
(-0.00258269 0 0)
(-0.00258428 0 0)
(-0.00258506 0 0)
(-0.00258503 0 0)
(-0.00258411 0 0)
(-0.00258226 0 0)
(-0.00257946 0 0)
(-0.00257563 0 0)
(-0.00257075 0 0)
(-0.00256475 0 0)
(-0.00255758 0 0)
(-0.0025492 0 0)
(-0.00253955 0 0)
(-0.00252856 0 0)
(-0.00251619 0 0)
(-0.00250237 0 0)
(-0.00248704 0 0)
(-0.00247014 0 0)
(-0.0024516 0 0)
(-0.00243136 0 0)
(-0.00240935 0 0)
(-0.0023855 0 0)
(-0.00235975 0 0)
(-0.00233204 0 0)
(-0.0023023 0 0)
(-0.00227047 0 0)
(-0.0022365 0 0)
(-0.00220033 0 0)
(-0.00216192 0 0)
(-0.00212122 0 0)
(-0.00207821 0 0)
(-0.00203287 0 0)
(-0.00198518 0 0)
(-0.00193513 0 0)
(-0.00188284 0 0)
(-0.00182854 0 0)
(-0.00177227 0 0)
(-0.00171203 0 0)
(-0.00164331 0 0)
(-0.00157621 0 0)
)
;

boundaryField
{
    fixedWall
    {
        type            fixedValue;
        value           uniform (0 0 0);
    }
    outlet
    {
        type            pressureInletOutletVelocity;
        value           uniform (-0.00157621 0 0);
    }
    defaultFaces
    {
        type            empty;
    }
}


// ************************************************************************* //
