/*--------------------------------*- C++ -*----------------------------------*\
| =========                 |                                                 |
| \\      /  F ield         | OpenFOAM: The Open Source CFD Toolbox           |
|  \\    /   O peration     | Version:  2406                                  |
|   \\  /    A nd           | Website:  www.openfoam.com                      |
|    \\/     M anipulation  |                                                 |
\*---------------------------------------------------------------------------*/
FoamFile
{
    version     2.0;
    format      ascii;
    arch        "LSB;label=32;scalar=64";
    class       volScalarField;
    location    "4.1";
    object      CO2;
}
// * * * * * * * * * * * * * * * * * * * * * * * * * * * * * * * * * * * * * //

dimensions      [0 0 0 0 0 0 0];

internalField   nonuniform List<scalar> 
1000
(
0.0709258
0.0709258
0.0709258
0.0709258
0.0709258
0.0709258
0.0709258
0.0709258
0.0709258
0.0709259
0.0709259
0.0709259
0.0709259
0.0709259
0.0709259
0.0709259
0.0709259
0.070926
0.070926
0.070926
0.070926
0.070926
0.070926
0.0709261
0.0709261
0.0709261
0.0709261
0.0709261
0.0709261
0.0709261
0.0709262
0.0709262
0.0709262
0.0709262
0.0709262
0.0709262
0.0709262
0.0709263
0.0709263
0.0709263
0.0709263
0.0709263
0.0709263
0.0709263
0.0709263
0.0709263
0.0709264
0.0709264
0.0709264
0.0709264
0.0709264
0.0709264
0.0709264
0.0709264
0.0709264
0.0709264
0.0709264
0.0709264
0.0709264
0.0709264
0.0709264
0.0709264
0.0709264
0.0709265
0.0709265
0.0709265
0.0709265
0.0709265
0.0709265
0.0709265
0.0709265
0.0709265
0.0709265
0.0709265
0.0709265
0.0709265
0.0709265
0.0709265
0.0709265
0.0709265
0.0709265
0.0709265
0.0709265
0.0709265
0.0709265
0.0709265
0.0709265
0.0709265
0.0709265
0.0709265
0.0709265
0.0709265
0.0709265
0.0709265
0.0709265
0.0709265
0.0709265
0.0709265
0.0709265
0.0709265
0.0709265
0.0709265
0.0709265
0.0709265
0.0709265
0.0709265
0.0709265
0.0709265
0.0709265
0.0709265
0.0709265
0.0709265
0.0709265
0.0709265
0.0709265
0.0709265
0.0709265
0.0709265
0.0709265
0.0709265
0.0709265
0.0709265
0.0709265
0.0709265
0.0709265
0.0709265
0.0709265
0.0709265
0.0709265
0.0709265
0.0709265
0.0709265
0.0709265
0.0709265
0.0709265
0.0709265
0.0709265
0.0709265
0.0709265
0.0709264
0.0709264
0.0709264
0.0709264
0.0709264
0.0709264
0.0709264
0.0709264
0.0709264
0.0709264
0.0709264
0.0709264
0.0709264
0.0709264
0.0709264
0.0709264
0.0709264
0.0709264
0.0709264
0.0709264
0.0709264
0.0709264
0.0709264
0.0709264
0.0709264
0.0709264
0.0709264
0.0709264
0.0709264
0.0709264
0.0709264
0.0709264
0.0709264
0.0709264
0.0709264
0.0709264
0.0709264
0.0709264
0.0709264
0.0709264
0.0709264
0.0709264
0.0709264
0.0709264
0.0709264
0.0709264
0.0709264
0.0709264
0.0709264
0.0709264
0.0709264
0.0709264
0.0709264
0.0709264
0.0709264
0.0709264
0.0709264
0.0709264
0.0709264
0.0709264
0.0709264
0.0709264
0.0709264
0.0709264
0.0709264
0.0709264
0.0709264
0.0709264
0.0709264
0.0709264
0.0709264
0.0709264
0.0709264
0.0709264
0.0709264
0.0709264
0.0709264
0.0709264
0.0709264
0.0709264
0.0709264
0.0709264
0.0709264
0.0709264
0.0709264
0.0709264
0.0709264
0.0709264
0.0709264
0.0709264
0.0709264
0.0709264
0.0709264
0.0709264
0.0709264
0.0709264
0.0709264
0.0709264
0.0709264
0.0709264
0.0709263
0.0709263
0.0709263
0.0709263
0.0709263
0.0709263
0.0709263
0.0709263
0.0709263
0.0709263
0.0709263
0.0709263
0.0709263
0.0709263
0.0709263
0.0709263
0.0709263
0.0709263
0.0709263
0.0709263
0.0709263
0.0709263
0.0709263
0.0709263
0.0709263
0.0709263
0.0709263
0.0709263
0.0709263
0.0709263
0.0709263
0.0709263
0.0709263
0.0709263
0.0709263
0.0709263
0.0709263
0.0709263
0.0709263
0.0709263
0.0709263
0.0709263
0.0709263
0.0709263
0.0709263
0.0709263
0.0709263
0.0709263
0.0709263
0.0709263
0.0709263
0.0709263
0.0709263
0.0709263
0.0709263
0.0709263
0.0709263
0.0709263
0.0709263
0.0709263
0.0709263
0.0709263
0.0709263
0.0709263
0.0709263
0.0709263
0.0709263
0.0709262
0.0709262
0.0709262
0.0709262
0.0709262
0.0709262
0.0709262
0.0709262
0.0709262
0.0709262
0.0709262
0.0709262
0.0709262
0.0709262
0.0709262
0.0709262
0.0709262
0.0709262
0.0709262
0.0709262
0.0709262
0.0709262
0.0709262
0.0709262
0.0709262
0.0709262
0.0709262
0.0709262
0.0709262
0.0709262
0.0709262
0.0709262
0.0709262
0.0709262
0.0709262
0.0709262
0.0709262
0.0709262
0.0709262
0.0709262
0.0709262
0.0709262
0.0709262
0.0709262
0.0709262
0.0709262
0.0709262
0.0709262
0.0709262
0.0709261
0.0709261
0.0709261
0.0709261
0.0709261
0.0709261
0.0709261
0.0709261
0.0709261
0.0709261
0.0709261
0.0709261
0.0709261
0.0709261
0.0709261
0.0709261
0.0709261
0.0709261
0.0709261
0.0709261
0.0709261
0.0709261
0.0709261
0.0709261
0.0709261
0.0709261
0.0709261
0.0709261
0.0709261
0.0709261
0.0709261
0.0709261
0.0709261
0.0709261
0.0709261
0.0709261
0.070926
0.070926
0.070926
0.070926
0.070926
0.070926
0.070926
0.070926
0.070926
0.070926
0.070926
0.070926
0.070926
0.070926
0.070926
0.070926
0.070926
0.070926
0.070926
0.070926
0.070926
0.070926
0.070926
0.070926
0.070926
0.070926
0.070926
0.070926
0.0709259
0.0709259
0.0709259
0.0709259
0.0709259
0.0709259
0.0709259
0.0709259
0.0709259
0.0709259
0.0709259
0.0709259
0.0709259
0.0709259
0.0709259
0.0709259
0.0709259
0.0709259
0.0709259
0.0709259
0.0709259
0.0709259
0.0709259
0.0709258
0.0709258
0.0709258
0.0709258
0.0709258
0.0709258
0.0709258
0.0709258
0.0709258
0.0709258
0.0709258
0.0709258
0.0709258
0.0709258
0.0709258
0.0709258
0.0709258
0.0709258
0.0709257
0.0709257
0.0709257
0.0709257
0.0709257
0.0709257
0.0709257
0.0709257
0.0709257
0.0709257
0.0709257
0.0709257
0.0709257
0.0709257
0.0709257
0.0709257
0.0709256
0.0709256
0.0709256
0.0709256
0.0709256
0.0709256
0.0709256
0.0709256
0.0709256
0.0709256
0.0709256
0.0709256
0.0709256
0.0709255
0.0709255
0.0709255
0.0709255
0.0709255
0.0709255
0.0709255
0.0709255
0.0709255
0.0709255
0.0709255
0.0709254
0.0709254
0.0709254
0.0709254
0.0709254
0.0709254
0.0709254
0.0709254
0.0709254
0.0709254
0.0709253
0.0709253
0.0709253
0.0709253
0.0709253
0.0709253
0.0709253
0.0709253
0.0709252
0.0709252
0.0709252
0.0709252
0.0709252
0.0709252
0.0709252
0.0709252
0.0709251
0.0709251
0.0709251
0.0709251
0.0709251
0.0709251
0.070925
0.070925
0.070925
0.070925
0.070925
0.070925
0.0709249
0.0709249
0.0709249
0.0709249
0.0709249
0.0709249
0.0709248
0.0709248
0.0709248
0.0709248
0.0709248
0.0709247
0.0709247
0.0709247
0.0709247
0.0709246
0.0709246
0.0709246
0.0709246
0.0709245
0.0709245
0.0709245
0.0709245
0.0709244
0.0709244
0.0709244
0.0709243
0.0709243
0.0709243
0.0709242
0.0709242
0.0709242
0.0709241
0.0709241
0.0709241
0.070924
0.070924
0.070924
0.0709239
0.0709239
0.0709238
0.0709238
0.0709237
0.0709237
0.0709236
0.0709236
0.0709235
0.0709235
0.0709234
0.0709234
0.0709233
0.0709232
0.0709232
0.0709231
0.070923
0.070923
0.0709229
0.0709228
0.0709227
0.0709227
0.0709226
0.0709225
0.0709224
0.0709223
0.0709222
0.0709221
0.070922
0.0709219
0.0709217
0.0709216
0.0709215
0.0709213
0.0709212
0.070921
0.0709209
0.0709207
0.0709205
0.0709203
0.0709201
0.0709199
0.0709196
0.0709194
0.0709191
0.0709188
0.0709185
0.0709182
0.0709178
0.0709174
0.070917
0.0709165
0.070916
0.0709154
0.0709148
0.0709141
0.0709133
0.0709125
0.0709115
0.0709104
0.0709091
0.0709076
0.0709059
0.0709038
0.0709013
0.0708983
0.0708945
0.0708897
0.0708834
0.070875
0.0708633
0.0708456
0.0708166
0.0707627
0.0706452
0.0703349
0.0693628
0.0658979
0.0507214
0.0253694
0.012545
0.00620659
0.00307504
0.00152563
0.000757889
0.000376919
0.000187622
9.3456e-05
4.65718e-05
2.32143e-05
1.1573e-05
5.76982e-06
2.87662e-06
1.43418e-06
7.15029e-07
3.56523e-07
1.77795e-07
8.86984e-08
4.42935e-08
2.21648e-08
1.10749e-08
5.64629e-09
2.88236e-09
1.64624e-09
1.13784e-09
6.81443e-10
4.25786e-10
2.97428e-10
2.31813e-10
1.99107e-10
1.86253e-10
1.79589e-10
1.72888e-10
1.69474e-10
1.68229e-10
1.67086e-10
1.66512e-10
1.66124e-10
1.65877e-10
1.6579e-10
1.65711e-10
1.65672e-10
1.65643e-10
1.65634e-10
1.65627e-10
1.65623e-10
1.65621e-10
1.6562e-10
1.6562e-10
1.6562e-10
1.65621e-10
1.65621e-10
1.65622e-10
1.65622e-10
1.65623e-10
1.65624e-10
1.65624e-10
1.65625e-10
1.65626e-10
1.65626e-10
1.65627e-10
1.65627e-10
1.65628e-10
1.65629e-10
1.6563e-10
1.6563e-10
1.65631e-10
1.65631e-10
1.65632e-10
1.65633e-10
1.65634e-10
1.65634e-10
1.65635e-10
1.65636e-10
1.65636e-10
1.65637e-10
1.65637e-10
1.65638e-10
1.65639e-10
1.6564e-10
1.6564e-10
1.65641e-10
1.65642e-10
1.65642e-10
1.65643e-10
1.65644e-10
1.65644e-10
1.65645e-10
1.65645e-10
1.65646e-10
1.65647e-10
1.65647e-10
1.65648e-10
1.65649e-10
1.6565e-10
1.6565e-10
1.65651e-10
1.65651e-10
1.65652e-10
1.65653e-10
1.65654e-10
1.65654e-10
1.65655e-10
1.65655e-10
1.65656e-10
1.65657e-10
1.65657e-10
1.65658e-10
1.65659e-10
1.65659e-10
1.6566e-10
1.65661e-10
1.65661e-10
1.65662e-10
1.65663e-10
1.65663e-10
1.65664e-10
1.65665e-10
1.65665e-10
1.65666e-10
1.65666e-10
1.65667e-10
1.65668e-10
1.65668e-10
1.65669e-10
1.6567e-10
1.65671e-10
1.65671e-10
1.65672e-10
1.65672e-10
1.65673e-10
1.65673e-10
1.65674e-10
1.65675e-10
1.65676e-10
1.65676e-10
1.65677e-10
1.65678e-10
1.65678e-10
1.65679e-10
1.6568e-10
1.65681e-10
1.65682e-10
1.65682e-10
1.65683e-10
1.65684e-10
1.65684e-10
1.65685e-10
1.65686e-10
1.65687e-10
1.65687e-10
1.65688e-10
1.65689e-10
1.65689e-10
1.6569e-10
1.65691e-10
1.65691e-10
1.65692e-10
1.65693e-10
1.65693e-10
1.65694e-10
1.65695e-10
1.65696e-10
1.65696e-10
1.65697e-10
1.65697e-10
1.65698e-10
1.65699e-10
1.65699e-10
1.657e-10
1.65701e-10
1.65701e-10
1.65702e-10
1.65703e-10
1.65703e-10
1.65704e-10
1.65704e-10
1.65705e-10
1.65706e-10
1.65706e-10
1.65707e-10
1.65708e-10
1.65709e-10
1.65709e-10
1.6571e-10
1.6571e-10
1.65711e-10
1.65712e-10
1.65713e-10
1.65713e-10
1.65714e-10
1.65715e-10
1.65716e-10
1.65717e-10
1.65717e-10
1.65718e-10
1.65718e-10
1.65719e-10
1.6572e-10
1.65721e-10
1.65721e-10
1.65722e-10
1.65723e-10
1.65723e-10
1.65724e-10
1.65725e-10
1.65726e-10
1.65726e-10
1.65727e-10
1.65727e-10
1.65728e-10
1.65729e-10
1.65729e-10
1.6573e-10
1.65731e-10
1.65731e-10
1.65732e-10
1.65733e-10
1.65733e-10
1.65734e-10
1.65735e-10
1.65735e-10
1.65736e-10
1.65737e-10
1.65737e-10
1.65738e-10
1.65739e-10
1.6574e-10
1.6574e-10
1.65741e-10
1.65742e-10
1.65742e-10
1.65743e-10
1.65744e-10
1.65744e-10
1.65745e-10
1.65746e-10
1.65746e-10
1.65747e-10
1.65748e-10
1.65748e-10
1.65749e-10
1.6575e-10
1.65751e-10
1.65751e-10
1.65752e-10
1.65753e-10
1.65753e-10
1.65754e-10
1.65755e-10
1.65755e-10
1.65756e-10
1.65756e-10
1.65757e-10
1.65758e-10
1.65759e-10
1.6576e-10
1.6576e-10
1.65761e-10
1.65762e-10
1.65762e-10
1.65763e-10
1.65763e-10
1.65764e-10
1.65765e-10
1.65765e-10
1.65766e-10
1.65767e-10
1.65768e-10
1.65768e-10
1.65769e-10
1.65769e-10
1.6577e-10
1.65771e-10
1.65771e-10
1.65772e-10
1.65773e-10
1.65774e-10
1.65774e-10
1.65775e-10
1.65776e-10
1.65777e-10
1.65777e-10
1.65778e-10
1.65778e-10
1.65779e-10
1.6578e-10
1.65781e-10
1.65781e-10
1.65782e-10
1.65783e-10
1.65784e-10
1.65784e-10
1.65785e-10
1.65786e-10
1.65786e-10
1.65787e-10
1.65788e-10
1.65788e-10
1.65789e-10
1.6579e-10
1.65791e-10
1.65791e-10
1.65792e-10
1.65792e-10
1.65793e-10
1.65794e-10
1.65794e-10
1.65795e-10
1.65796e-10
1.65796e-10
1.65797e-10
1.65798e-10
1.65799e-10
1.65799e-10
1.658e-10
1.658e-10
1.65801e-10
1.65802e-10
1.65803e-10
1.65804e-10
1.65804e-10
1.65805e-10
1.65806e-10
1.65807e-10
1.65807e-10
1.65808e-10
1.65809e-10
1.6581e-10
1.6581e-10
1.65811e-10
1.65812e-10
1.65813e-10
1.65813e-10
1.65814e-10
1.65815e-10
1.65816e-10
1.65816e-10
1.65817e-10
1.65818e-10
1.65818e-10
1.65819e-10
1.6582e-10
1.6582e-10
)
;

boundaryField
{
    fixedWall
    {
        type            zeroGradient;
    }
    outlet
    {
        type            inletOutlet;
        inletValue      uniform 0;
        value           uniform 1.6582e-10;
    }
    defaultFaces
    {
        type            empty;
    }
}


// ************************************************************************* //
