/*--------------------------------*- C++ -*----------------------------------*\
| =========                 |                                                 |
| \\      /  F ield         | OpenFOAM: The Open Source CFD Toolbox           |
|  \\    /   O peration     | Version:  2406                                  |
|   \\  /    A nd           | Website:  www.openfoam.com                      |
|    \\/     M anipulation  |                                                 |
\*---------------------------------------------------------------------------*/
FoamFile
{
    version     2.0;
    format      ascii;
    arch        "LSB;label=32;scalar=64";
    class       volScalarField;
    location    "4.1";
    object      H2O;
}
// * * * * * * * * * * * * * * * * * * * * * * * * * * * * * * * * * * * * * //

dimensions      [0 0 0 0 0 0 0];

internalField   nonuniform List<scalar> 
1000
(
0.0580663
0.0580663
0.0580663
0.0580663
0.0580663
0.0580663
0.0580663
0.0580664
0.0580664
0.0580664
0.0580664
0.0580664
0.0580664
0.0580664
0.0580664
0.0580664
0.0580664
0.0580665
0.0580665
0.0580665
0.0580665
0.0580665
0.0580665
0.0580665
0.0580665
0.0580666
0.0580666
0.0580666
0.0580666
0.0580666
0.0580666
0.0580666
0.0580666
0.0580667
0.0580667
0.0580667
0.0580667
0.0580667
0.0580667
0.0580667
0.0580667
0.0580667
0.0580668
0.0580668
0.0580668
0.0580668
0.0580668
0.0580668
0.0580668
0.0580668
0.0580668
0.0580668
0.0580668
0.0580668
0.0580668
0.0580668
0.0580668
0.0580668
0.0580668
0.0580669
0.0580669
0.0580669
0.0580669
0.0580669
0.0580669
0.0580669
0.0580669
0.0580669
0.0580669
0.0580669
0.0580669
0.0580669
0.0580669
0.0580669
0.0580669
0.0580669
0.0580669
0.0580669
0.0580669
0.0580669
0.0580669
0.0580669
0.0580669
0.0580669
0.0580669
0.0580669
0.0580669
0.0580669
0.0580669
0.0580669
0.0580669
0.0580669
0.0580669
0.0580669
0.0580669
0.0580669
0.0580669
0.0580669
0.0580669
0.0580669
0.0580669
0.0580669
0.0580669
0.0580669
0.0580669
0.0580669
0.0580669
0.0580669
0.0580669
0.0580669
0.0580669
0.0580669
0.0580669
0.0580669
0.0580669
0.0580669
0.0580669
0.0580669
0.0580669
0.0580669
0.0580669
0.0580669
0.0580669
0.0580669
0.0580669
0.0580669
0.0580669
0.0580669
0.0580669
0.0580669
0.0580669
0.0580669
0.0580669
0.0580669
0.0580669
0.0580669
0.0580669
0.0580669
0.0580669
0.0580669
0.0580669
0.0580669
0.0580669
0.0580669
0.0580669
0.0580669
0.0580669
0.0580669
0.0580669
0.0580669
0.0580669
0.0580669
0.0580669
0.0580669
0.0580669
0.0580668
0.0580668
0.0580668
0.0580668
0.0580668
0.0580668
0.0580668
0.0580668
0.0580668
0.0580668
0.0580668
0.0580668
0.0580668
0.0580668
0.0580668
0.0580668
0.0580668
0.0580668
0.0580668
0.0580668
0.0580668
0.0580668
0.0580668
0.0580668
0.0580668
0.0580668
0.0580668
0.0580668
0.0580668
0.0580668
0.0580668
0.0580668
0.0580668
0.0580668
0.0580668
0.0580668
0.0580668
0.0580668
0.0580668
0.0580668
0.0580668
0.0580668
0.0580668
0.0580668
0.0580668
0.0580668
0.0580668
0.0580668
0.0580668
0.0580668
0.0580668
0.0580668
0.0580668
0.0580668
0.0580668
0.0580668
0.0580668
0.0580668
0.0580668
0.0580668
0.0580668
0.0580668
0.0580668
0.0580668
0.0580668
0.0580668
0.0580668
0.0580668
0.0580668
0.0580668
0.0580668
0.0580668
0.0580668
0.0580668
0.0580668
0.0580668
0.0580668
0.0580668
0.0580668
0.0580668
0.0580668
0.0580668
0.0580668
0.0580668
0.0580668
0.0580668
0.0580668
0.0580668
0.0580668
0.0580668
0.0580668
0.0580668
0.0580668
0.0580668
0.0580668
0.0580668
0.0580668
0.0580668
0.0580668
0.0580668
0.0580668
0.0580668
0.0580668
0.0580668
0.0580668
0.0580668
0.0580668
0.0580668
0.0580668
0.0580668
0.0580668
0.0580667
0.0580667
0.0580667
0.0580667
0.0580667
0.0580667
0.0580667
0.0580667
0.0580667
0.0580667
0.0580667
0.0580667
0.0580667
0.0580667
0.0580667
0.0580667
0.0580667
0.0580667
0.0580667
0.0580667
0.0580667
0.0580667
0.0580667
0.0580667
0.0580667
0.0580667
0.0580667
0.0580667
0.0580667
0.0580667
0.0580667
0.0580667
0.0580667
0.0580667
0.0580667
0.0580667
0.0580667
0.0580667
0.0580667
0.0580667
0.0580667
0.0580667
0.0580667
0.0580667
0.0580667
0.0580667
0.0580667
0.0580667
0.0580667
0.0580667
0.0580667
0.0580667
0.0580667
0.0580667
0.0580667
0.0580667
0.0580667
0.0580667
0.0580667
0.0580667
0.0580667
0.0580667
0.0580667
0.0580667
0.0580667
0.0580667
0.0580667
0.0580667
0.0580667
0.0580667
0.0580666
0.0580666
0.0580666
0.0580666
0.0580666
0.0580666
0.0580666
0.0580666
0.0580666
0.0580666
0.0580666
0.0580666
0.0580666
0.0580666
0.0580666
0.0580666
0.0580666
0.0580666
0.0580666
0.0580666
0.0580666
0.0580666
0.0580666
0.0580666
0.0580666
0.0580666
0.0580666
0.0580666
0.0580666
0.0580666
0.0580666
0.0580666
0.0580666
0.0580666
0.0580666
0.0580666
0.0580666
0.0580666
0.0580666
0.0580666
0.0580666
0.0580666
0.0580666
0.0580666
0.0580666
0.0580666
0.0580666
0.0580666
0.0580665
0.0580665
0.0580665
0.0580665
0.0580665
0.0580665
0.0580665
0.0580665
0.0580665
0.0580665
0.0580665
0.0580665
0.0580665
0.0580665
0.0580665
0.0580665
0.0580665
0.0580665
0.0580665
0.0580665
0.0580665
0.0580665
0.0580665
0.0580665
0.0580665
0.0580665
0.0580665
0.0580665
0.0580665
0.0580665
0.0580665
0.0580665
0.0580665
0.0580665
0.0580665
0.0580665
0.0580664
0.0580664
0.0580664
0.0580664
0.0580664
0.0580664
0.0580664
0.0580664
0.0580664
0.0580664
0.0580664
0.0580664
0.0580664
0.0580664
0.0580664
0.0580664
0.0580664
0.0580664
0.0580664
0.0580664
0.0580664
0.0580664
0.0580664
0.0580664
0.0580664
0.0580664
0.0580663
0.0580663
0.0580663
0.0580663
0.0580663
0.0580663
0.0580663
0.0580663
0.0580663
0.0580663
0.0580663
0.0580663
0.0580663
0.0580663
0.0580663
0.0580663
0.0580663
0.0580663
0.0580663
0.0580663
0.0580663
0.0580663
0.0580662
0.0580662
0.0580662
0.0580662
0.0580662
0.0580662
0.0580662
0.0580662
0.0580662
0.0580662
0.0580662
0.0580662
0.0580662
0.0580662
0.0580662
0.0580662
0.0580662
0.0580661
0.0580661
0.0580661
0.0580661
0.0580661
0.0580661
0.0580661
0.0580661
0.0580661
0.0580661
0.0580661
0.0580661
0.0580661
0.0580661
0.058066
0.058066
0.058066
0.058066
0.058066
0.058066
0.058066
0.058066
0.058066
0.058066
0.058066
0.058066
0.0580659
0.0580659
0.0580659
0.0580659
0.0580659
0.0580659
0.0580659
0.0580659
0.0580659
0.0580659
0.0580658
0.0580658
0.0580658
0.0580658
0.0580658
0.0580658
0.0580658
0.0580658
0.0580658
0.0580657
0.0580657
0.0580657
0.0580657
0.0580657
0.0580657
0.0580657
0.0580656
0.0580656
0.0580656
0.0580656
0.0580656
0.0580656
0.0580656
0.0580655
0.0580655
0.0580655
0.0580655
0.0580655
0.0580655
0.0580654
0.0580654
0.0580654
0.0580654
0.0580654
0.0580653
0.0580653
0.0580653
0.0580653
0.0580653
0.0580652
0.0580652
0.0580652
0.0580652
0.0580651
0.0580651
0.0580651
0.0580651
0.058065
0.058065
0.058065
0.0580649
0.0580649
0.0580649
0.0580649
0.0580648
0.0580648
0.0580647
0.0580647
0.0580647
0.0580646
0.0580646
0.0580646
0.0580645
0.0580645
0.0580644
0.0580644
0.0580643
0.0580643
0.0580642
0.0580642
0.0580641
0.0580641
0.058064
0.0580639
0.0580639
0.0580638
0.0580638
0.0580637
0.0580636
0.0580635
0.0580635
0.0580634
0.0580633
0.0580632
0.0580631
0.058063
0.0580629
0.0580628
0.0580627
0.0580625
0.0580624
0.0580623
0.0580621
0.058062
0.0580618
0.0580617
0.0580615
0.0580613
0.0580611
0.0580608
0.0580606
0.0580604
0.0580601
0.0580598
0.0580595
0.0580591
0.0580587
0.0580583
0.0580578
0.0580573
0.0580568
0.0580561
0.0580554
0.0580546
0.0580537
0.0580527
0.0580514
0.05805
0.0580483
0.0580463
0.0580438
0.0580407
0.0580367
0.0580316
0.0580248
0.0580151
0.0580007
0.0579769
0.0579328
0.0578366
0.0575826
0.0567867
0.05395
0.0415252
0.0207697
0.0102705
0.00508128
0.00251751
0.00124902
0.000620477
0.00030858
0.000153604
7.65116e-05
3.8128e-05
1.90053e-05
9.47473e-06
4.7237e-06
2.35507e-06
1.17415e-06
5.85388e-07
2.91882e-07
1.45559e-07
7.26166e-08
3.62627e-08
1.81461e-08
9.06692e-09
4.62257e-09
2.35976e-09
1.34776e-09
9.31541e-10
5.57891e-10
3.48587e-10
2.43502e-10
1.89783e-10
1.63007e-10
1.52484e-10
1.47028e-10
1.41542e-10
1.38747e-10
1.37728e-10
1.36791e-10
1.36322e-10
1.36004e-10
1.35802e-10
1.3573e-10
1.35666e-10
1.35635e-10
1.35611e-10
1.35603e-10
1.35597e-10
1.35594e-10
1.35592e-10
1.35592e-10
1.35592e-10
1.35592e-10
1.35592e-10
1.35592e-10
1.35593e-10
1.35593e-10
1.35594e-10
1.35595e-10
1.35595e-10
1.35596e-10
1.35596e-10
1.35597e-10
1.35597e-10
1.35598e-10
1.35598e-10
1.35599e-10
1.35599e-10
1.356e-10
1.35601e-10
1.35601e-10
1.35602e-10
1.35602e-10
1.35603e-10
1.35603e-10
1.35604e-10
1.35604e-10
1.35605e-10
1.35605e-10
1.35606e-10
1.35606e-10
1.35607e-10
1.35608e-10
1.35608e-10
1.35609e-10
1.35609e-10
1.3561e-10
1.3561e-10
1.35611e-10
1.35611e-10
1.35612e-10
1.35612e-10
1.35613e-10
1.35614e-10
1.35614e-10
1.35615e-10
1.35615e-10
1.35616e-10
1.35616e-10
1.35617e-10
1.35617e-10
1.35618e-10
1.35618e-10
1.35619e-10
1.3562e-10
1.3562e-10
1.35621e-10
1.35621e-10
1.35622e-10
1.35622e-10
1.35623e-10
1.35623e-10
1.35624e-10
1.35625e-10
1.35625e-10
1.35626e-10
1.35626e-10
1.35626e-10
1.35627e-10
1.35628e-10
1.35628e-10
1.35629e-10
1.35629e-10
1.3563e-10
1.3563e-10
1.35631e-10
1.35631e-10
1.35632e-10
1.35632e-10
1.35633e-10
1.35633e-10
1.35634e-10
1.35634e-10
1.35635e-10
1.35635e-10
1.35636e-10
1.35636e-10
1.35637e-10
1.35638e-10
1.35638e-10
1.35639e-10
1.35639e-10
1.3564e-10
1.35641e-10
1.35641e-10
1.35642e-10
1.35643e-10
1.35643e-10
1.35644e-10
1.35644e-10
1.35645e-10
1.35645e-10
1.35646e-10
1.35647e-10
1.35647e-10
1.35648e-10
1.35648e-10
1.35649e-10
1.35649e-10
1.3565e-10
1.35651e-10
1.35651e-10
1.35652e-10
1.35652e-10
1.35653e-10
1.35654e-10
1.35654e-10
1.35654e-10
1.35655e-10
1.35656e-10
1.35656e-10
1.35657e-10
1.35657e-10
1.35658e-10
1.35658e-10
1.35659e-10
1.35659e-10
1.3566e-10
1.3566e-10
1.35661e-10
1.35661e-10
1.35662e-10
1.35662e-10
1.35663e-10
1.35663e-10
1.35664e-10
1.35664e-10
1.35665e-10
1.35666e-10
1.35666e-10
1.35667e-10
1.35668e-10
1.35668e-10
1.35669e-10
1.35669e-10
1.3567e-10
1.35671e-10
1.35671e-10
1.35672e-10
1.35672e-10
1.35673e-10
1.35673e-10
1.35674e-10
1.35675e-10
1.35675e-10
1.35676e-10
1.35676e-10
1.35677e-10
1.35677e-10
1.35678e-10
1.35678e-10
1.35679e-10
1.3568e-10
1.3568e-10
1.35681e-10
1.35681e-10
1.35681e-10
1.35682e-10
1.35683e-10
1.35683e-10
1.35684e-10
1.35684e-10
1.35685e-10
1.35686e-10
1.35686e-10
1.35687e-10
1.35687e-10
1.35688e-10
1.35688e-10
1.35689e-10
1.3569e-10
1.3569e-10
1.35691e-10
1.35691e-10
1.35692e-10
1.35692e-10
1.35693e-10
1.35693e-10
1.35694e-10
1.35695e-10
1.35695e-10
1.35696e-10
1.35696e-10
1.35697e-10
1.35697e-10
1.35698e-10
1.35699e-10
1.35699e-10
1.357e-10
1.357e-10
1.35701e-10
1.35701e-10
1.35702e-10
1.35702e-10
1.35703e-10
1.35703e-10
1.35704e-10
1.35705e-10
1.35705e-10
1.35706e-10
1.35706e-10
1.35707e-10
1.35708e-10
1.35708e-10
1.35708e-10
1.35709e-10
1.3571e-10
1.3571e-10
1.35711e-10
1.35711e-10
1.35712e-10
1.35712e-10
1.35713e-10
1.35713e-10
1.35714e-10
1.35715e-10
1.35715e-10
1.35716e-10
1.35716e-10
1.35717e-10
1.35718e-10
1.35718e-10
1.35719e-10
1.35719e-10
1.3572e-10
1.3572e-10
1.35721e-10
1.35721e-10
1.35722e-10
1.35723e-10
1.35723e-10
1.35724e-10
1.35725e-10
1.35725e-10
1.35726e-10
1.35726e-10
1.35727e-10
1.35727e-10
1.35728e-10
1.35729e-10
1.35729e-10
1.35729e-10
1.3573e-10
1.35731e-10
1.35731e-10
1.35732e-10
1.35732e-10
1.35733e-10
1.35733e-10
1.35734e-10
1.35734e-10
1.35735e-10
1.35735e-10
1.35736e-10
1.35737e-10
1.35737e-10
1.35738e-10
1.35738e-10
1.35739e-10
1.35739e-10
1.3574e-10
1.35741e-10
1.35741e-10
1.35742e-10
1.35743e-10
1.35743e-10
1.35744e-10
1.35744e-10
1.35745e-10
1.35746e-10
1.35746e-10
1.35747e-10
1.35747e-10
1.35748e-10
1.35749e-10
1.35749e-10
1.3575e-10
1.35751e-10
1.35751e-10
1.35752e-10
1.35752e-10
1.35753e-10
1.35754e-10
1.35754e-10
1.35755e-10
1.35755e-10
1.35755e-10
)
;

boundaryField
{
    fixedWall
    {
        type            zeroGradient;
    }
    outlet
    {
        type            inletOutlet;
        inletValue      uniform 0;
        value           uniform 1.35755e-10;
    }
    defaultFaces
    {
        type            empty;
    }
}


// ************************************************************************* //
