/*--------------------------------*- C++ -*----------------------------------*\
| =========                 |                                                 |
| \\      /  F ield         | OpenFOAM: The Open Source CFD Toolbox           |
|  \\    /   O peration     | Version:  2406                                  |
|   \\  /    A nd           | Website:  www.openfoam.com                      |
|    \\/     M anipulation  |                                                 |
\*---------------------------------------------------------------------------*/
FoamFile
{
    version     2.0;
    format      ascii;
    arch        "LSB;label=32;scalar=64";
    class       volScalarField;
    location    "4.1";
    object      O2;
}
// * * * * * * * * * * * * * * * * * * * * * * * * * * * * * * * * * * * * * //

dimensions      [0 0 0 0 0 0 0];

internalField   nonuniform List<scalar> 
1000
(
1.54708e-06
1.54334e-06
1.53683e-06
1.52811e-06
1.51759e-06
1.50551e-06
1.4921e-06
1.47752e-06
1.46188e-06
1.4453e-06
1.42787e-06
1.40967e-06
1.39078e-06
1.37125e-06
1.35116e-06
1.33055e-06
1.30949e-06
1.28802e-06
1.26621e-06
1.2441e-06
1.22175e-06
1.19921e-06
1.17654e-06
1.15379e-06
1.13102e-06
1.10829e-06
1.08564e-06
1.06314e-06
1.04082e-06
1.01876e-06
9.96981e-07
9.75544e-07
9.54488e-07
9.33852e-07
9.13674e-07
8.93986e-07
8.74816e-07
8.5619e-07
8.38129e-07
8.20652e-07
8.03771e-07
7.87497e-07
7.71839e-07
7.56799e-07
7.42379e-07
7.28577e-07
7.1539e-07
7.0281e-07
6.9083e-07
6.79438e-07
6.68625e-07
6.58376e-07
6.48676e-07
6.39512e-07
6.30867e-07
6.22725e-07
6.15068e-07
6.07879e-07
6.0114e-07
5.94834e-07
5.88944e-07
5.83451e-07
5.78338e-07
5.73589e-07
5.69186e-07
5.65114e-07
5.61355e-07
5.57895e-07
5.54718e-07
5.5181e-07
5.49156e-07
5.46743e-07
5.44557e-07
5.42587e-07
5.40819e-07
5.39243e-07
5.37847e-07
5.3662e-07
5.35553e-07
5.34636e-07
5.33859e-07
5.33214e-07
5.32694e-07
5.32289e-07
5.31992e-07
5.31798e-07
5.31698e-07
5.31687e-07
5.31758e-07
5.31906e-07
5.32127e-07
5.32414e-07
5.32764e-07
5.33172e-07
5.33634e-07
5.34147e-07
5.34706e-07
5.35309e-07
5.35952e-07
5.36632e-07
5.37347e-07
5.38095e-07
5.38872e-07
5.39677e-07
5.40507e-07
5.41362e-07
5.42238e-07
5.43135e-07
5.44051e-07
5.44985e-07
5.45935e-07
5.469e-07
5.47879e-07
5.48872e-07
5.49877e-07
5.50893e-07
5.5192e-07
5.52956e-07
5.54003e-07
5.55058e-07
5.56121e-07
5.57192e-07
5.5827e-07
5.59356e-07
5.60448e-07
5.61547e-07
5.62651e-07
5.63762e-07
5.64878e-07
5.65999e-07
5.67126e-07
5.68258e-07
5.69395e-07
5.70537e-07
5.71683e-07
5.72835e-07
5.73991e-07
5.75151e-07
5.76317e-07
5.77487e-07
5.78661e-07
5.7984e-07
5.8102e-07
5.82199e-07
5.83393e-07
5.84592e-07
5.85795e-07
5.87003e-07
5.88215e-07
5.89431e-07
5.90652e-07
5.91878e-07
5.93108e-07
5.94343e-07
5.95582e-07
5.96827e-07
5.98076e-07
5.99331e-07
6.0059e-07
6.01854e-07
6.03124e-07
6.04398e-07
6.05678e-07
6.06963e-07
6.08254e-07
6.0955e-07
6.10851e-07
6.12157e-07
6.1347e-07
6.14787e-07
6.16111e-07
6.17439e-07
6.18774e-07
6.20114e-07
6.21461e-07
6.22813e-07
6.2417e-07
6.25534e-07
6.26904e-07
6.2828e-07
6.29662e-07
6.31049e-07
6.32443e-07
6.33844e-07
6.3525e-07
6.36663e-07
6.38082e-07
6.39507e-07
6.40939e-07
6.42377e-07
6.43822e-07
6.45273e-07
6.4673e-07
6.48195e-07
6.49666e-07
6.51143e-07
6.52627e-07
6.54118e-07
6.55616e-07
6.57121e-07
6.58632e-07
6.6015e-07
6.61675e-07
6.63208e-07
6.64747e-07
6.66293e-07
6.67846e-07
6.69407e-07
6.70974e-07
6.72549e-07
6.74131e-07
6.7572e-07
6.77317e-07
6.78921e-07
6.80532e-07
6.82151e-07
6.83777e-07
6.85411e-07
6.87052e-07
6.88701e-07
6.90358e-07
6.92022e-07
6.93694e-07
6.95374e-07
6.97062e-07
6.98758e-07
7.00461e-07
7.02173e-07
7.03893e-07
7.05621e-07
7.07357e-07
7.09101e-07
7.10853e-07
7.12614e-07
7.14383e-07
7.16161e-07
7.17947e-07
7.19742e-07
7.21545e-07
7.23357e-07
7.25178e-07
7.27008e-07
7.28846e-07
7.30693e-07
7.3255e-07
7.34415e-07
7.3629e-07
7.38173e-07
7.40066e-07
7.41968e-07
7.4388e-07
7.45801e-07
7.47731e-07
7.49671e-07
7.51621e-07
7.5358e-07
7.55549e-07
7.57528e-07
7.59517e-07
7.61516e-07
7.63525e-07
7.65543e-07
7.67572e-07
7.69612e-07
7.71661e-07
7.73721e-07
7.75792e-07
7.77873e-07
7.79964e-07
7.82067e-07
7.8418e-07
7.86304e-07
7.88439e-07
7.90585e-07
7.92742e-07
7.9491e-07
7.9709e-07
7.99281e-07
8.01484e-07
8.03698e-07
8.05924e-07
8.08162e-07
8.10412e-07
8.12674e-07
8.14948e-07
8.17235e-07
8.19534e-07
8.21845e-07
8.24169e-07
8.26506e-07
8.28856e-07
8.31219e-07
8.33596e-07
8.35985e-07
8.38389e-07
8.40805e-07
8.43235e-07
8.4567e-07
8.48106e-07
8.50579e-07
8.53067e-07
8.5557e-07
8.58088e-07
8.6062e-07
8.63167e-07
8.65729e-07
8.68306e-07
8.70899e-07
8.73507e-07
8.76131e-07
8.78771e-07
8.81427e-07
8.84098e-07
8.86786e-07
8.89491e-07
8.92212e-07
8.9495e-07
8.97705e-07
9.00477e-07
9.03266e-07
9.06073e-07
9.08897e-07
9.11739e-07
9.14599e-07
9.17477e-07
9.20372e-07
9.23286e-07
9.26219e-07
9.2917e-07
9.3214e-07
9.35129e-07
9.38137e-07
9.41164e-07
9.4421e-07
9.47276e-07
9.50361e-07
9.53466e-07
9.56591e-07
9.59737e-07
9.62902e-07
9.66088e-07
9.69294e-07
9.72521e-07
9.75769e-07
9.79039e-07
9.82329e-07
9.85641e-07
9.88974e-07
9.9233e-07
9.95707e-07
9.99106e-07
1.00253e-06
1.00597e-06
1.00944e-06
1.01293e-06
1.01645e-06
1.01998e-06
1.02354e-06
1.02713e-06
1.03074e-06
1.03437e-06
1.03803e-06
1.04172e-06
1.04543e-06
1.04916e-06
1.05292e-06
1.05671e-06
1.06053e-06
1.06437e-06
1.06824e-06
1.07213e-06
1.07606e-06
1.08001e-06
1.08399e-06
1.088e-06
1.09204e-06
1.09611e-06
1.10021e-06
1.10434e-06
1.10851e-06
1.1127e-06
1.11692e-06
1.12118e-06
1.12547e-06
1.12979e-06
1.13415e-06
1.13854e-06
1.14297e-06
1.14743e-06
1.15192e-06
1.15645e-06
1.16102e-06
1.16563e-06
1.17027e-06
1.17495e-06
1.17967e-06
1.18443e-06
1.18922e-06
1.19406e-06
1.19894e-06
1.20386e-06
1.20882e-06
1.21379e-06
1.21879e-06
1.22388e-06
1.22902e-06
1.23419e-06
1.23942e-06
1.24468e-06
1.25e-06
1.25536e-06
1.26077e-06
1.26623e-06
1.27174e-06
1.2773e-06
1.2829e-06
1.28856e-06
1.29427e-06
1.30004e-06
1.30585e-06
1.31172e-06
1.31765e-06
1.32362e-06
1.32966e-06
1.33575e-06
1.34189e-06
1.34809e-06
1.35435e-06
1.36067e-06
1.36705e-06
1.37348e-06
1.37997e-06
1.38653e-06
1.39314e-06
1.39982e-06
1.40656e-06
1.41336e-06
1.42022e-06
1.42714e-06
1.43413e-06
1.44119e-06
1.44831e-06
1.4555e-06
1.46275e-06
1.47008e-06
1.47747e-06
1.48493e-06
1.49242e-06
1.49996e-06
1.50764e-06
1.5154e-06
1.52323e-06
1.53114e-06
1.53913e-06
1.5472e-06
1.55534e-06
1.56358e-06
1.57189e-06
1.58029e-06
1.58879e-06
1.59737e-06
1.60604e-06
1.61481e-06
1.62367e-06
1.63263e-06
1.64169e-06
1.65085e-06
1.66011e-06
1.66948e-06
1.67896e-06
1.68855e-06
1.69825e-06
1.70807e-06
1.718e-06
1.72805e-06
1.73822e-06
1.74852e-06
1.75894e-06
1.7695e-06
1.78018e-06
1.791e-06
1.80195e-06
1.81303e-06
1.82424e-06
1.83551e-06
1.84704e-06
1.85871e-06
1.87053e-06
1.88251e-06
1.89465e-06
1.90695e-06
1.9194e-06
1.93202e-06
1.94481e-06
1.95777e-06
1.9709e-06
1.9842e-06
1.99768e-06
2.01134e-06
2.02519e-06
2.03922e-06
2.05344e-06
2.06785e-06
2.08247e-06
2.09728e-06
2.1123e-06
2.12753e-06
2.14297e-06
2.15864e-06
2.17452e-06
2.19064e-06
2.20699e-06
2.22359e-06
2.24043e-06
2.25752e-06
2.27485e-06
2.29243e-06
2.31032e-06
2.32855e-06
2.34692e-06
2.3657e-06
2.38477e-06
2.40416e-06
2.42387e-06
2.44391e-06
2.4643e-06
2.48502e-06
2.5061e-06
2.52755e-06
2.54937e-06
2.57157e-06
2.59416e-06
2.61715e-06
2.64049e-06
2.66407e-06
2.68825e-06
2.71285e-06
2.7379e-06
2.76341e-06
2.78939e-06
2.81584e-06
2.84279e-06
2.87025e-06
2.89823e-06
2.92674e-06
2.95581e-06
2.98545e-06
3.01568e-06
3.04652e-06
3.07799e-06
3.11011e-06
3.14291e-06
3.1764e-06
3.21062e-06
3.24558e-06
3.28131e-06
3.31785e-06
3.35505e-06
3.39294e-06
3.43202e-06
3.47203e-06
3.51298e-06
3.55491e-06
3.59785e-06
3.64183e-06
3.68691e-06
3.7331e-06
3.78047e-06
3.82904e-06
3.87887e-06
3.93001e-06
3.98251e-06
4.03642e-06
4.0918e-06
4.14872e-06
4.20726e-06
4.26747e-06
4.32943e-06
4.39323e-06
4.45895e-06
4.52669e-06
4.59652e-06
4.66856e-06
4.74291e-06
4.81968e-06
4.89897e-06
4.98091e-06
5.06562e-06
5.15323e-06
5.24388e-06
5.3377e-06
5.43486e-06
5.53551e-06
5.63983e-06
5.74798e-06
5.86007e-06
5.97538e-06
6.09603e-06
6.2215e-06
6.35212e-06
6.48813e-06
6.62987e-06
6.77772e-06
6.93211e-06
7.09351e-06
7.26244e-06
7.43947e-06
7.62522e-06
7.82039e-06
8.02571e-06
8.24203e-06
8.47024e-06
8.71135e-06
8.96644e-06
9.23672e-06
9.52351e-06
9.82835e-06
1.01507e-05
1.0495e-05
1.0865e-05
1.12608e-05
1.16851e-05
1.21411e-05
1.26326e-05
1.31637e-05
1.37393e-05
1.43653e-05
1.50485e-05
1.57973e-05
1.66199e-05
1.75227e-05
1.85285e-05
1.96514e-05
2.09129e-05
2.23344e-05
2.39497e-05
2.58165e-05
2.79803e-05
3.05175e-05
3.35284e-05
3.71504e-05
4.15757e-05
4.70797e-05
5.40662e-05
6.31493e-05
7.53334e-05
9.24377e-05
0.000118109
0.000160324
0.000238645
0.000409565
0.000860744
0.00227436
0.00731296
0.0293819
0.0662478
0.0848965
0.0941136
0.0986674
0.10092
0.102037
0.102591
0.102866
0.103003
0.103071
0.103105
0.103122
0.103131
0.103135
0.103137
0.103138
0.103138
0.103139
0.103139
0.103139
0.103139
0.103139
0.103139
0.103139
0.103139
0.103139
0.103139
0.103139
0.103139
0.103139
0.103139
0.103139
0.103139
0.103139
0.103139
0.103139
0.103139
0.103139
0.103139
0.103139
0.103139
0.103139
0.103139
0.103139
0.103139
0.103139
0.103139
0.103139
0.103139
0.103139
0.103139
0.103139
0.103139
0.103139
0.103139
0.103139
0.103139
0.103139
0.103139
0.103139
0.103139
0.103139
0.103139
0.103139
0.103139
0.103139
0.103139
0.103139
0.103139
0.103139
0.103139
0.103139
0.103139
0.103139
0.103139
0.103139
0.103139
0.103139
0.103139
0.103139
0.103139
0.103139
0.103139
0.103139
0.103139
0.103139
0.103139
0.103139
0.103139
0.103139
0.103139
0.103139
0.103139
0.103139
0.103139
0.103139
0.103139
0.103139
0.103139
0.103139
0.103139
0.103139
0.103139
0.103139
0.103139
0.103139
0.103139
0.103139
0.103139
0.103139
0.103139
0.103139
0.103139
0.103139
0.103139
0.103139
0.103139
0.103139
0.103139
0.103139
0.103139
0.103139
0.103139
0.103139
0.103139
0.103139
0.103139
0.103139
0.103139
0.103139
0.103139
0.103139
0.103139
0.103139
0.103139
0.103139
0.103139
0.103139
0.103139
0.103139
0.103139
0.103139
0.103139
0.103139
0.103139
0.103139
0.103139
0.103139
0.103139
0.103139
0.103139
0.103139
0.103139
0.103139
0.103139
0.103139
0.103139
0.103139
0.103139
0.103139
0.103139
0.103139
0.103139
0.103139
0.103139
0.103139
0.103139
0.103139
0.103139
0.103139
0.103139
0.103139
0.103139
0.103139
0.103139
0.103139
0.103139
0.103139
0.103139
0.103139
0.103139
0.103139
0.103139
0.103139
0.103139
0.103139
0.103139
0.103139
0.103139
0.103139
0.103139
0.103139
0.103139
0.103139
0.103139
0.103139
0.103139
0.103139
0.103139
0.103139
0.103139
0.103139
0.103139
0.103139
0.103139
0.103139
0.103139
0.103139
0.103139
0.103139
0.103139
0.103139
0.103139
0.103139
0.103139
0.103139
0.103139
0.103139
0.103139
0.103139
0.103139
0.103139
0.103139
0.103139
0.103139
0.103139
0.103139
0.103139
0.103139
0.103139
0.103139
0.103139
0.103139
0.103139
0.103139
0.103139
0.103139
0.103139
0.103139
0.103139
0.103139
0.103139
0.103139
0.103139
0.103139
0.103139
0.103139
0.103139
0.103139
0.103139
0.103139
0.103139
0.103139
0.103139
0.103139
0.103139
0.103139
0.103139
0.103139
0.103139
0.103139
0.103139
0.103139
0.103139
0.103139
0.103139
0.103139
0.103139
0.103139
0.103139
0.103139
0.103139
0.103139
0.103139
0.103139
0.103139
0.103139
0.103139
0.103139
0.103139
0.103139
0.103139
0.103139
0.103139
0.103139
0.103139
0.103139
0.103139
0.103139
0.103139
0.103139
0.103139
0.103139
0.103139
0.103139
0.103139
0.103139
0.103139
0.103139
0.103139
0.103139
0.103139
0.103139
0.103139
0.103139
0.103139
0.103139
0.103139
0.103139
0.103139
0.103139
0.103139
0.103139
0.103139
0.103139
0.103139
0.103139
0.103139
0.103139
0.103139
0.103139
0.103139
0.103139
0.103139
0.103139
0.103139
0.103139
0.103139
0.103139
0.103139
0.103139
0.103139
0.103139
0.103139
0.103139
0.103139
0.103139
0.103139
0.103139
0.103139
0.103139
0.103139
0.103139
0.103139
0.103139
)
;

boundaryField
{
    fixedWall
    {
        type            zeroGradient;
    }
    outlet
    {
        type            inletOutlet;
        inletValue      uniform 0;
        value           uniform 0.103139;
    }
    defaultFaces
    {
        type            empty;
    }
}


// ************************************************************************* //
