/*--------------------------------*- C++ -*----------------------------------*\
| =========                 |                                                 |
| \\      /  F ield         | OpenFOAM: The Open Source CFD Toolbox           |
|  \\    /   O peration     | Version:  2406                                  |
|   \\  /    A nd           | Website:  www.openfoam.com                      |
|    \\/     M anipulation  |                                                 |
\*---------------------------------------------------------------------------*/
FoamFile
{
    version     2.0;
    format      ascii;
    arch        "LSB;label=32;scalar=64";
    class       volScalarField;
    location    "4.1";
    object      T;
}
// * * * * * * * * * * * * * * * * * * * * * * * * * * * * * * * * * * * * * //

dimensions      [0 0 0 1 0 0 0];

internalField   nonuniform List<scalar> 
1000
(
313.77
350.299
382.859
412.321
439.267
464.116
487.176
508.686
528.833
547.768
565.615
582.478
598.442
613.582
627.96
641.633
654.649
667.051
678.876
690.158
700.929
711.217
721.045
730.439
739.418
748.003
756.212
764.062
771.569
778.747
785.611
792.174
798.448
804.446
810.177
815.654
820.886
825.883
830.654
835.209
839.555
843.701
847.654
851.423
855.015
858.436
861.694
864.795
867.745
870.551
873.218
875.752
878.159
880.443
882.611
884.666
886.614
888.46
890.207
891.861
893.425
894.903
896.3
897.619
898.863
900.036
901.142
902.184
903.165
904.087
904.955
905.769
906.535
907.252
907.925
908.556
909.147
909.699
910.216
910.699
911.15
911.57
911.962
912.327
912.667
912.983
913.276
913.547
913.801
914.036
914.254
914.455
914.642
914.814
914.973
915.119
915.254
915.379
915.493
915.598
915.695
915.783
915.864
915.938
916.006
916.067
916.124
916.175
916.222
916.264
916.302
916.337
916.369
916.397
916.423
916.446
916.467
916.485
916.502
916.517
916.53
916.542
916.552
916.562
916.57
916.577
916.583
916.589
916.594
916.598
916.602
916.605
916.607
916.61
916.612
916.613
916.614
916.615
916.616
916.617
916.617
916.618
916.618
916.618
916.618
916.618
916.618
916.617
916.617
916.617
916.616
916.616
916.616
916.615
916.615
916.614
916.614
916.613
916.613
916.612
916.612
916.611
916.611
916.61
916.609
916.609
916.608
916.608
916.607
916.606
916.606
916.605
916.604
916.604
916.603
916.602
916.601
916.601
916.6
916.599
916.598
916.597
916.596
916.596
916.595
916.594
916.593
916.592
916.591
916.59
916.589
916.588
916.586
916.585
916.584
916.583
916.582
916.581
916.579
916.578
916.577
916.576
916.574
916.573
916.572
916.57
916.569
916.568
916.566
916.565
916.564
916.562
916.561
916.559
916.558
916.556
916.555
916.553
916.552
916.55
916.549
916.547
916.546
916.544
916.543
916.542
916.54
916.539
916.537
916.536
916.534
916.533
916.531
916.53
916.528
916.527
916.525
916.524
916.522
916.521
916.52
916.518
916.517
916.515
916.514
916.513
916.511
916.51
916.509
916.508
916.506
916.505
916.504
916.503
916.501
916.5
916.499
916.498
916.497
916.496
916.495
916.494
916.493
916.492
916.491
916.49
916.489
916.488
916.487
916.487
916.486
916.485
916.484
916.484
916.483
916.482
916.482
916.481
916.481
916.48
916.48
916.479
916.479
916.479
916.478
916.478
916.478
916.477
916.477
916.477
916.477
916.477
916.476
916.476
916.476
916.476
916.476
916.476
916.476
916.476
916.476
916.476
916.476
916.476
916.476
916.476
916.477
916.477
916.477
916.477
916.477
916.477
916.478
916.478
916.478
916.478
916.479
916.479
916.479
916.48
916.48
916.48
916.481
916.481
916.481
916.482
916.482
916.482
916.483
916.483
916.484
916.484
916.485
916.485
916.485
916.486
916.486
916.487
916.488
916.488
916.489
916.489
916.49
916.49
916.491
916.492
916.492
916.493
916.494
916.495
916.495
916.496
916.497
916.498
916.498
916.499
916.5
916.501
916.502
916.503
916.503
916.504
916.505
916.506
916.507
916.508
916.509
916.51
916.511
916.512
916.513
916.514
916.515
916.516
916.517
916.518
916.519
916.52
916.521
916.522
916.523
916.524
916.524
916.525
916.526
916.527
916.528
916.529
916.529
916.53
916.531
916.531
916.532
916.533
916.533
916.533
916.534
916.534
916.535
916.535
916.535
916.535
916.535
916.535
916.535
916.535
916.535
916.535
916.534
916.534
916.533
916.533
916.532
916.531
916.531
916.53
916.529
916.528
916.527
916.526
916.525
916.523
916.522
916.521
916.52
916.518
916.517
916.516
916.514
916.513
916.512
916.51
916.509
916.508
916.506
916.505
916.504
916.503
916.502
916.501
916.5
916.499
916.499
916.498
916.498
916.497
916.497
916.497
916.497
916.497
916.497
916.498
916.498
916.499
916.499
916.5
916.501
916.502
916.503
916.504
916.505
916.506
916.507
916.509
916.51
916.511
916.513
916.514
916.515
916.517
916.518
916.519
916.52
916.521
916.522
916.523
916.524
916.525
916.526
916.526
916.527
916.527
916.527
916.527
916.528
916.527
916.527
916.527
916.527
916.526
916.526
916.525
916.525
916.524
916.523
916.523
916.522
916.521
916.52
916.52
916.519
916.518
916.518
916.517
916.517
916.516
916.516
916.515
916.515
916.515
916.514
916.514
916.514
916.514
916.514
916.514
916.514
916.514
916.514
916.514
916.514
916.514
916.514
916.514
916.514
916.514
916.513
916.513
916.513
916.513
916.513
916.513
916.513
916.513
916.513
916.513
916.513
916.513
916.513
916.514
916.514
916.515
916.515
916.516
916.517
916.518
916.518
916.519
916.52
916.521
916.522
916.523
916.524
916.525
916.525
916.526
916.526
916.527
916.527
916.527
916.526
916.526
916.525
916.524
916.523
916.522
916.52
916.519
916.517
916.515
916.513
916.511
916.509
916.506
916.504
916.501
916.498
916.496
916.493
916.49
916.486
916.483
916.48
916.476
916.473
916.469
916.466
916.462
916.459
916.456
916.453
916.45
916.448
916.446
916.444
916.443
916.443
916.443
916.444
916.445
916.447
916.45
916.453
916.457
916.462
916.467
916.473
916.478
916.484
916.49
916.496
916.502
916.507
916.512
916.516
916.519
916.521
916.523
916.523
916.522
916.52
916.517
916.514
916.51
916.506
916.503
916.499
916.497
916.495
916.494
916.493
916.494
916.495
916.496
916.498
916.498
916.497
916.494
916.487
916.475
916.456
916.429
916.392
916.342
916.279
916.201
916.108
915.999
915.855
915.589
914.9
912.843
906.355
884.226
791.538
601.961
474.177
394.967
348.904
323.213
309.207
301.659
297.613
295.45
294.294
293.677
293.348
293.172
293.078
293.028
293.001
292.987
292.98
292.976
292.973
292.972
292.972
292.972
292.971
292.971
292.971
292.971
292.971
292.971
292.972
292.972
292.972
292.972
292.972
292.972
292.972
292.972
292.972
292.972
292.972
292.972
292.972
292.972
292.972
292.972
292.972
292.972
292.972
292.973
292.973
292.973
292.973
292.973
292.973
292.973
292.973
292.973
292.973
292.973
292.973
292.973
292.973
292.973
292.973
292.973
292.973
292.973
292.974
292.974
292.974
292.974
292.974
292.974
292.974
292.974
292.974
292.974
292.974
292.974
292.974
292.974
292.974
292.974
292.974
292.974
292.974
292.975
292.975
292.975
292.975
292.975
292.975
292.975
292.975
292.975
292.975
292.975
292.975
292.975
292.975
292.975
292.975
292.975
292.975
292.975
292.976
292.976
292.976
292.976
292.976
292.976
292.976
292.976
292.976
292.976
292.976
292.976
292.976
292.976
292.976
292.976
292.976
292.976
292.976
292.977
292.977
292.977
292.977
292.977
292.977
292.977
292.977
292.977
292.977
292.977
292.977
292.977
292.977
292.977
292.977
292.977
292.977
292.978
292.978
292.978
292.978
292.978
292.978
292.978
292.978
292.978
292.978
292.978
292.978
292.978
292.978
292.978
292.978
292.978
292.978
292.979
292.979
292.979
292.979
292.979
292.979
292.979
292.979
292.979
292.979
292.979
292.979
292.979
292.979
292.979
292.979
292.979
292.979
292.979
292.979
292.98
292.98
292.98
292.98
292.98
292.98
292.98
292.98
292.98
292.98
292.98
292.98
292.98
292.98
292.98
292.98
292.98
292.98
292.981
292.981
292.981
292.981
292.981
292.981
292.981
292.981
292.981
292.981
292.981
292.981
292.981
292.981
292.981
292.981
292.981
292.981
292.981
292.982
292.982
292.982
292.982
292.982
292.982
292.982
292.982
292.982
292.982
292.982
292.982
292.982
292.982
292.982
292.982
292.982
292.982
292.983
292.983
292.983
292.983
292.983
292.983
292.983
292.983
292.983
292.983
292.983
292.983
292.983
292.983
292.983
292.983
292.983
292.983
292.983
292.984
292.984
292.984
292.984
292.984
292.984
292.984
292.984
292.984
292.984
292.984
292.984
292.984
292.984
292.984
292.984
292.984
292.984
292.984
292.985
292.985
292.985
292.985
292.985
292.985
292.985
292.985
292.985
292.985
292.985
292.985
292.985
292.985
292.985
292.985
292.985
292.985
292.986
292.986
292.986
292.986
292.986
292.986
292.986
292.986
292.986
292.986
292.986
292.986
292.986
292.986
292.986
292.986
292.986
292.986
292.986
292.987
292.987
292.987
292.987
292.987
292.987
292.987
292.987
292.987
292.987
292.987
292.987
292.987
292.987
292.987
292.987
292.987
292.987
292.988
292.988
292.988
292.988
292.988
292.988
292.988
292.988
292.988
292.988
292.988
292.988
292.988
292.988
292.988
292.988
292.988
)
;

boundaryField
{
    fixedWall
    {
        type            fixedValue;
        value           uniform 293;
    }
    outlet
    {
        type            inletOutlet;
        inletValue      uniform 293;
        value           uniform 292.988;
    }
    defaultFaces
    {
        type            empty;
    }
}


// ************************************************************************* //
