/*--------------------------------*- C++ -*----------------------------------*\
| =========                 |                                                 |
| \\      /  F ield         | OpenFOAM: The Open Source CFD Toolbox           |
|  \\    /   O peration     | Version:  2406                                  |
|   \\  /    A nd           | Website:  www.openfoam.com                      |
|    \\/     M anipulation  |                                                 |
\*---------------------------------------------------------------------------*/
FoamFile
{
    version     2.0;
    format      ascii;
    arch        "LSB;label=32;scalar=64";
    class       volScalarField;
    location    "3.4";
    object      H2O;
}
// * * * * * * * * * * * * * * * * * * * * * * * * * * * * * * * * * * * * * //

dimensions      [0 0 0 0 0 0 0];

internalField   nonuniform List<scalar> 
1000
(
0.0580663
0.0580663
0.0580663
0.0580663
0.0580663
0.0580663
0.0580663
0.0580663
0.0580663
0.0580663
0.0580663
0.0580664
0.0580664
0.0580664
0.0580664
0.0580664
0.0580664
0.0580664
0.0580664
0.0580665
0.0580665
0.0580665
0.0580665
0.0580665
0.0580665
0.0580665
0.0580665
0.0580666
0.0580666
0.0580666
0.0580666
0.0580666
0.0580666
0.0580666
0.0580666
0.0580667
0.0580667
0.0580667
0.0580667
0.0580667
0.0580667
0.0580667
0.0580667
0.0580667
0.0580667
0.0580667
0.0580667
0.0580668
0.0580668
0.0580668
0.0580668
0.0580668
0.0580668
0.0580668
0.0580668
0.0580668
0.0580668
0.0580668
0.0580668
0.0580668
0.0580668
0.0580668
0.0580668
0.0580668
0.0580668
0.0580668
0.0580668
0.0580668
0.0580668
0.0580668
0.0580668
0.0580668
0.0580668
0.0580668
0.0580668
0.0580668
0.0580668
0.0580668
0.0580668
0.0580668
0.0580668
0.0580668
0.0580668
0.0580668
0.0580668
0.0580668
0.0580668
0.0580668
0.0580668
0.0580668
0.0580668
0.0580668
0.0580668
0.0580668
0.0580668
0.0580668
0.0580668
0.0580668
0.0580668
0.0580668
0.0580668
0.0580668
0.0580668
0.0580668
0.0580668
0.0580668
0.0580668
0.0580668
0.0580668
0.0580668
0.0580668
0.0580668
0.0580668
0.0580668
0.0580668
0.0580668
0.0580668
0.0580668
0.0580668
0.0580668
0.0580668
0.0580668
0.0580668
0.0580668
0.0580668
0.0580668
0.0580668
0.0580668
0.0580668
0.0580668
0.0580668
0.0580668
0.0580668
0.0580668
0.0580668
0.0580668
0.0580668
0.0580668
0.0580668
0.0580668
0.0580668
0.0580668
0.0580668
0.0580668
0.0580668
0.0580668
0.0580668
0.0580668
0.0580668
0.0580668
0.0580668
0.0580668
0.0580668
0.0580667
0.0580667
0.0580667
0.0580667
0.0580667
0.0580667
0.0580667
0.0580667
0.0580667
0.0580667
0.0580667
0.0580667
0.0580667
0.0580667
0.0580667
0.0580667
0.0580667
0.0580667
0.0580667
0.0580667
0.0580667
0.0580667
0.0580667
0.0580667
0.0580667
0.0580667
0.0580667
0.0580667
0.0580667
0.0580667
0.0580667
0.0580667
0.0580667
0.0580667
0.0580667
0.0580667
0.0580667
0.0580667
0.0580667
0.0580667
0.0580667
0.0580667
0.0580667
0.0580667
0.0580667
0.0580667
0.0580667
0.0580667
0.0580667
0.0580667
0.0580667
0.0580667
0.0580667
0.0580667
0.0580667
0.0580667
0.0580667
0.0580667
0.0580667
0.0580667
0.0580667
0.0580667
0.0580667
0.0580667
0.0580667
0.0580667
0.0580667
0.0580667
0.0580667
0.0580666
0.0580666
0.0580666
0.0580666
0.0580666
0.0580666
0.0580666
0.0580666
0.0580666
0.0580666
0.0580666
0.0580666
0.0580666
0.0580666
0.0580666
0.0580666
0.0580666
0.0580666
0.0580666
0.0580666
0.0580666
0.0580666
0.0580666
0.0580666
0.0580666
0.0580666
0.0580666
0.0580666
0.0580666
0.0580666
0.0580666
0.0580666
0.0580666
0.0580666
0.0580666
0.0580666
0.0580666
0.0580666
0.0580666
0.0580666
0.0580666
0.0580666
0.0580666
0.0580666
0.0580666
0.0580666
0.0580666
0.0580666
0.0580665
0.0580665
0.0580665
0.0580665
0.0580665
0.0580665
0.0580665
0.0580665
0.0580665
0.0580665
0.0580665
0.0580665
0.0580665
0.0580665
0.0580665
0.0580665
0.0580665
0.0580665
0.0580665
0.0580665
0.0580665
0.0580665
0.0580665
0.0580665
0.0580665
0.0580665
0.0580665
0.0580665
0.0580665
0.0580665
0.0580665
0.0580665
0.0580665
0.0580665
0.0580665
0.0580664
0.0580664
0.0580664
0.0580664
0.0580664
0.0580664
0.0580664
0.0580664
0.0580664
0.0580664
0.0580664
0.0580664
0.0580664
0.0580664
0.0580664
0.0580664
0.0580664
0.0580664
0.0580664
0.0580664
0.0580664
0.0580664
0.0580664
0.0580664
0.0580664
0.0580664
0.0580664
0.0580663
0.0580663
0.0580663
0.0580663
0.0580663
0.0580663
0.0580663
0.0580663
0.0580663
0.0580663
0.0580663
0.0580663
0.0580663
0.0580663
0.0580663
0.0580663
0.0580663
0.0580663
0.0580663
0.0580663
0.0580663
0.0580662
0.0580662
0.0580662
0.0580662
0.0580662
0.0580662
0.0580662
0.0580662
0.0580662
0.0580662
0.0580662
0.0580662
0.0580662
0.0580662
0.0580662
0.0580662
0.0580662
0.0580661
0.0580661
0.0580661
0.0580661
0.0580661
0.0580661
0.0580661
0.0580661
0.0580661
0.0580661
0.0580661
0.0580661
0.0580661
0.0580661
0.058066
0.058066
0.058066
0.058066
0.058066
0.058066
0.058066
0.058066
0.058066
0.058066
0.058066
0.058066
0.0580659
0.0580659
0.0580659
0.0580659
0.0580659
0.0580659
0.0580659
0.0580659
0.0580659
0.0580659
0.0580658
0.0580658
0.0580658
0.0580658
0.0580658
0.0580658
0.0580658
0.0580658
0.0580658
0.0580657
0.0580657
0.0580657
0.0580657
0.0580657
0.0580657
0.0580657
0.0580657
0.0580656
0.0580656
0.0580656
0.0580656
0.0580656
0.0580656
0.0580655
0.0580655
0.0580655
0.0580655
0.0580655
0.0580655
0.0580654
0.0580654
0.0580654
0.0580654
0.0580654
0.0580653
0.0580653
0.0580653
0.0580653
0.0580653
0.0580652
0.0580652
0.0580652
0.0580652
0.0580651
0.0580651
0.0580651
0.0580651
0.058065
0.058065
0.058065
0.058065
0.0580649
0.0580649
0.0580649
0.0580648
0.0580648
0.0580648
0.0580647
0.0580647
0.0580646
0.0580646
0.0580646
0.0580645
0.0580645
0.0580644
0.0580644
0.0580644
0.0580643
0.0580643
0.0580642
0.0580641
0.0580641
0.058064
0.058064
0.0580639
0.0580639
0.0580638
0.0580637
0.0580636
0.0580636
0.0580635
0.0580634
0.0580633
0.0580632
0.0580631
0.058063
0.0580629
0.0580628
0.0580627
0.0580626
0.0580625
0.0580623
0.0580622
0.058062
0.0580619
0.0580617
0.0580615
0.0580614
0.0580611
0.0580609
0.0580607
0.0580604
0.0580602
0.0580599
0.0580596
0.0580592
0.0580588
0.0580584
0.058058
0.0580575
0.0580569
0.0580563
0.0580556
0.0580548
0.058054
0.058053
0.0580518
0.0580505
0.0580489
0.058047
0.0580447
0.0580419
0.0580383
0.0580336
0.0580274
0.0580188
0.0580064
0.0579874
0.0579558
0.0578984
0.0577818
0.0574912
0.0565608
0.0528685
0.0263027
0.0127683
0.00623805
0.00306108
0.00150814
0.000745633
0.000369632
0.000183576
9.128e-05
4.54195e-05
2.26094e-05
1.12575e-05
5.60613e-06
2.79213e-06
1.39076e-06
6.92813e-07
3.45176e-07
1.72004e-07
8.57523e-08
4.27719e-08
2.13633e-08
1.07053e-08
5.39234e-09
2.724e-09
1.46972e-09
8.74735e-10
6.01617e-10
3.58384e-10
2.24013e-10
1.78367e-10
1.51594e-10
1.35806e-10
1.27604e-10
1.19682e-10
1.16601e-10
1.15087e-10
1.1389e-10
1.13219e-10
1.12907e-10
1.12717e-10
1.12625e-10
1.12556e-10
1.12523e-10
1.125e-10
1.12486e-10
1.12477e-10
1.12475e-10
1.12473e-10
1.12472e-10
1.12471e-10
1.12471e-10
1.12471e-10
1.12472e-10
1.12472e-10
1.12472e-10
1.12473e-10
1.12473e-10
1.12473e-10
1.12474e-10
1.12474e-10
1.12474e-10
1.12475e-10
1.12475e-10
1.12476e-10
1.12476e-10
1.12476e-10
1.12477e-10
1.12477e-10
1.12477e-10
1.12478e-10
1.12478e-10
1.12478e-10
1.12479e-10
1.12479e-10
1.12479e-10
1.1248e-10
1.1248e-10
1.1248e-10
1.12481e-10
1.12481e-10
1.12481e-10
1.12482e-10
1.12482e-10
1.12483e-10
1.12483e-10
1.12483e-10
1.12484e-10
1.12484e-10
1.12484e-10
1.12484e-10
1.12485e-10
1.12485e-10
1.12486e-10
1.12486e-10
1.12486e-10
1.12487e-10
1.12487e-10
1.12487e-10
1.12488e-10
1.12488e-10
1.12488e-10
1.12489e-10
1.12489e-10
1.1249e-10
1.1249e-10
1.1249e-10
1.1249e-10
1.12491e-10
1.12491e-10
1.12492e-10
1.12492e-10
1.12492e-10
1.12493e-10
1.12493e-10
1.12493e-10
1.12494e-10
1.12494e-10
1.12494e-10
1.12495e-10
1.12495e-10
1.12496e-10
1.12496e-10
1.12496e-10
1.12497e-10
1.12497e-10
1.12498e-10
1.12498e-10
1.12498e-10
1.12499e-10
1.12499e-10
1.12499e-10
1.125e-10
1.125e-10
1.125e-10
1.12501e-10
1.12501e-10
1.12501e-10
1.12502e-10
1.12502e-10
1.12502e-10
1.12503e-10
1.12503e-10
1.12503e-10
1.12504e-10
1.12504e-10
1.12505e-10
1.12505e-10
1.12505e-10
1.12506e-10
1.12506e-10
1.12506e-10
1.12507e-10
1.12507e-10
1.12507e-10
1.12508e-10
1.12508e-10
1.12509e-10
1.12509e-10
1.12509e-10
1.1251e-10
1.1251e-10
1.1251e-10
1.12511e-10
1.12511e-10
1.12511e-10
1.12512e-10
1.12512e-10
1.12512e-10
1.12513e-10
1.12513e-10
1.12513e-10
1.12514e-10
1.12514e-10
1.12514e-10
1.12515e-10
1.12515e-10
1.12516e-10
1.12516e-10
1.12517e-10
1.12517e-10
1.12517e-10
1.12518e-10
1.12518e-10
1.12519e-10
1.12519e-10
1.12519e-10
1.1252e-10
1.1252e-10
1.1252e-10
1.12521e-10
1.12521e-10
1.12522e-10
1.12522e-10
1.12522e-10
1.12523e-10
1.12523e-10
1.12523e-10
1.12524e-10
1.12524e-10
1.12524e-10
1.12525e-10
1.12525e-10
1.12526e-10
1.12526e-10
1.12526e-10
1.12527e-10
1.12527e-10
1.12527e-10
1.12528e-10
1.12528e-10
1.12528e-10
1.12529e-10
1.12529e-10
1.12529e-10
1.1253e-10
1.1253e-10
1.1253e-10
1.12531e-10
1.12531e-10
1.12532e-10
1.12532e-10
1.12532e-10
1.12533e-10
1.12533e-10
1.12533e-10
1.12534e-10
1.12534e-10
1.12535e-10
1.12535e-10
1.12535e-10
1.12536e-10
1.12536e-10
1.12536e-10
1.12537e-10
1.12537e-10
1.12537e-10
1.12538e-10
1.12538e-10
1.12539e-10
1.12539e-10
1.12539e-10
1.1254e-10
1.1254e-10
1.12541e-10
1.12541e-10
1.12541e-10
1.12542e-10
1.12542e-10
1.12542e-10
1.12543e-10
1.12543e-10
1.12544e-10
1.12544e-10
1.12544e-10
1.12545e-10
1.12545e-10
1.12545e-10
1.12546e-10
1.12546e-10
1.12546e-10
1.12547e-10
1.12547e-10
1.12548e-10
1.12548e-10
1.12548e-10
1.12549e-10
1.12549e-10
1.1255e-10
1.1255e-10
1.1255e-10
1.12551e-10
1.12551e-10
1.12551e-10
1.12552e-10
1.12552e-10
1.12553e-10
1.12553e-10
1.12553e-10
1.12554e-10
1.12554e-10
1.12554e-10
1.12555e-10
1.12555e-10
1.12555e-10
1.12556e-10
1.12556e-10
1.12557e-10
1.12557e-10
1.12557e-10
1.12558e-10
1.12558e-10
1.12559e-10
1.12559e-10
1.12559e-10
1.1256e-10
1.1256e-10
1.1256e-10
1.12561e-10
1.12561e-10
1.12561e-10
1.12562e-10
1.12562e-10
1.12563e-10
1.12563e-10
1.12564e-10
1.12564e-10
1.12564e-10
1.12565e-10
1.12565e-10
1.12565e-10
1.12566e-10
1.12566e-10
1.12566e-10
1.12567e-10
1.12567e-10
1.12567e-10
1.12568e-10
1.12568e-10
1.12569e-10
1.12569e-10
1.1257e-10
1.1257e-10
1.1257e-10
1.12571e-10
1.12571e-10
1.12571e-10
1.12572e-10
1.12572e-10
1.12573e-10
1.12573e-10
1.12573e-10
1.12574e-10
1.12574e-10
1.12574e-10
1.12575e-10
1.12575e-10
1.12576e-10
1.12576e-10
1.12576e-10
1.12577e-10
1.12577e-10
1.12577e-10
1.12578e-10
1.12578e-10
1.12579e-10
1.12579e-10
1.12579e-10
1.1258e-10
1.1258e-10
1.12581e-10
1.12581e-10
1.12581e-10
1.12582e-10
1.12582e-10
1.12582e-10
1.12583e-10
1.12583e-10
1.12584e-10
1.12584e-10
1.12584e-10
1.12585e-10
1.12585e-10
1.12586e-10
1.12586e-10
1.12586e-10
1.12587e-10
1.12587e-10
1.12587e-10
1.12588e-10
1.12588e-10
1.12588e-10
1.12589e-10
1.12589e-10
1.1259e-10
1.1259e-10
1.1259e-10
1.12591e-10
1.12591e-10
1.12592e-10
1.12592e-10
1.12592e-10
1.12593e-10
1.12593e-10
1.12594e-10
1.12594e-10
1.12594e-10
1.12595e-10
1.12595e-10
1.12595e-10
1.12596e-10
1.12596e-10
1.12597e-10
1.12597e-10
1.12597e-10
1.12598e-10
1.12598e-10
1.12598e-10
1.12599e-10
1.12599e-10
1.12599e-10
1.126e-10
1.126e-10
1.12601e-10
1.12601e-10
1.12602e-10
1.12602e-10
1.12602e-10
1.12603e-10
1.12603e-10
1.12604e-10
1.12604e-10
1.12604e-10
1.12605e-10
1.12605e-10
1.12605e-10
1.12606e-10
1.12606e-10
1.12607e-10
1.12607e-10
1.12607e-10
1.12608e-10
1.12608e-10
1.12608e-10
1.12609e-10
1.12609e-10
1.1261e-10
1.1261e-10
1.1261e-10
1.12611e-10
1.12611e-10
1.12611e-10
1.12612e-10
1.12612e-10
1.12613e-10
1.12613e-10
1.12613e-10
1.12614e-10
1.12614e-10
1.12614e-10
1.12615e-10
1.12615e-10
1.12616e-10
1.12616e-10
1.12617e-10
1.12617e-10
1.12617e-10
1.12618e-10
1.12618e-10
1.12619e-10
1.12619e-10
1.12619e-10
1.1262e-10
1.1262e-10
1.1262e-10
1.12621e-10
1.12621e-10
1.12622e-10
1.12622e-10
1.12622e-10
1.12623e-10
)
;

boundaryField
{
    fixedWall
    {
        type            zeroGradient;
    }
    outlet
    {
        type            inletOutlet;
        inletValue      uniform 0;
        value           uniform 1.12623e-10;
    }
    defaultFaces
    {
        type            empty;
    }
}


// ************************************************************************* //
