/*--------------------------------*- C++ -*----------------------------------*\
| =========                 |                                                 |
| \\      /  F ield         | OpenFOAM: The Open Source CFD Toolbox           |
|  \\    /   O peration     | Version:  2406                                  |
|   \\  /    A nd           | Website:  www.openfoam.com                      |
|    \\/     M anipulation  |                                                 |
\*---------------------------------------------------------------------------*/
FoamFile
{
    version     2.0;
    format      ascii;
    arch        "LSB;label=32;scalar=64";
    class       volScalarField;
    location    "3.4";
    object      Qdot;
}
// * * * * * * * * * * * * * * * * * * * * * * * * * * * * * * * * * * * * * //

dimensions      [1 -1 -3 0 0 0 0];

internalField   nonuniform List<scalar> 
1000
(
3.09722e-08
5.61714e-08
5.61721e-08
4.69632e-07
2.40297e-06
1.2054e-05
4.62468e-05
0.00014287
0.000372735
0.000850209
0.00173988
0.0032565
0.00565776
0.00923068
0.0142729
0.0210719
0.0298835
0.0409131
0.0543009
0.0701114
0.0883293
0.10886
0.131536
0.156126
0.182345
0.209874
0.238369
0.267479
0.296859
0.326179
0.355134
0.383455
0.410907
0.437299
0.462477
0.48633
0.508783
0.529795
0.549357
0.567484
0.584214
0.599603
0.613721
0.626645
0.638463
0.649262
0.659133
0.668166
0.676448
0.684062
0.691088
0.697599
0.703663
0.709344
0.714697
0.719774
0.72462
0.729276
0.733777
0.738153
0.742432
0.746637
0.750786
0.754897
0.758983
0.763056
0.767124
0.771195
0.775274
0.779367
0.783477
0.787605
0.791754
0.795924
0.800112
0.8043
0.808521
0.812787
0.81707
0.821372
0.825693
0.830032
0.834389
0.838763
0.843153
0.847558
0.851979
0.856415
0.860865
0.865329
0.869808
0.8743
0.878807
0.883329
0.887864
0.892415
0.896981
0.901562
0.90616
0.910774
0.915405
0.920054
0.924721
0.929407
0.934113
0.938839
0.943587
0.948356
0.953147
0.957961
0.9628
0.967663
0.972551
0.977465
0.982407
0.987375
0.992372
0.997398
1.00244
1.00748
1.0126
1.01776
1.02295
1.02817
1.03342
1.0387
1.04402
1.04938
1.05476
1.06019
1.06565
1.07115
1.07669
1.08227
1.08788
1.09354
1.09924
1.10497
1.11076
1.11658
1.12245
1.12836
1.13431
1.14031
1.14635
1.15244
1.15858
1.16477
1.171
1.17728
1.18361
1.18999
1.19642
1.2029
1.20943
1.21602
1.22266
1.22935
1.23609
1.24289
1.24974
1.25665
1.26362
1.27064
1.27773
1.28487
1.29207
1.29933
1.30665
1.31403
1.32147
1.32898
1.33655
1.34418
1.35188
1.35965
1.36748
1.37538
1.38334
1.39138
1.39948
1.40766
1.41591
1.42423
1.43262
1.44109
1.44963
1.45824
1.46694
1.47571
1.48455
1.49348
1.50249
1.51158
1.52075
1.53001
1.53934
1.54877
1.55828
1.56787
1.57756
1.58733
1.59719
1.60715
1.6172
1.62734
1.63757
1.6479
1.65833
1.66885
1.67948
1.6902
1.70103
1.71196
1.72299
1.73413
1.74537
1.75672
1.76818
1.77975
1.79143
1.80323
1.81514
1.82716
1.83931
1.85157
1.86395
1.87645
1.88908
1.90184
1.91472
1.92773
1.94087
1.95414
1.96755
1.98109
1.99477
2.00859
2.02255
2.03665
2.0509
2.0653
2.07985
2.09455
2.10941
2.12442
2.13959
2.15492
2.17042
2.18608
2.20191
2.21791
2.23408
2.25043
2.26696
2.28367
2.30056
2.31764
2.3349
2.35236
2.37001
2.38786
2.40591
2.42416
2.44262
2.46128
2.48016
2.49925
2.51856
2.53809
2.55784
2.57782
2.59803
2.61848
2.63916
2.66009
2.68126
2.70268
2.72435
2.74628
2.76847
2.79093
2.81366
2.83665
2.85993
2.88349
2.90734
2.93148
2.95592
2.98066
3.00571
3.03107
3.05676
3.0828
3.10889
3.13535
3.16246
3.18986
3.21761
3.24571
3.27418
3.30302
3.33224
3.36186
3.39187
3.42229
3.45312
3.48437
3.51605
3.54816
3.58072
3.61373
3.64721
3.68116
3.71558
3.7505
3.78591
3.82184
3.85828
3.89525
3.93277
3.97083
4.00945
4.04865
4.08842
4.12879
4.16977
4.21136
4.25359
4.29645
4.33997
4.38416
4.42902
4.47458
4.52085
4.56784
4.61556
4.66403
4.71326
4.76328
4.81408
4.8657
4.91815
4.97144
5.02558
5.08061
5.13653
5.19336
5.25112
5.30984
5.36953
5.43021
5.4919
5.55462
5.61841
5.68327
5.74924
5.81634
5.8846
5.95403
6.02468
6.09656
6.16971
6.24416
6.31994
6.39708
6.47562
6.55559
6.63702
6.71996
6.80444
6.89051
6.97819
7.06755
7.15861
7.25143
7.34605
7.44252
7.54089
7.64121
7.74353
7.84791
7.9544
8.06307
8.17397
8.28717
8.40272
8.5207
8.64118
8.76422
8.8899
9.01829
9.14948
9.28355
9.42058
9.56065
9.70387
9.85031
10.0001
10.1533
10.31
10.4704
10.6346
10.8026
10.9746
11.1508
11.3312
11.5161
11.7055
11.8996
12.0982
12.2993
12.5084
12.7227
12.9425
13.1681
13.3996
13.6374
13.8815
14.1324
14.3901
14.6551
14.9275
15.2077
15.496
15.7927
16.0981
16.4126
16.7366
17.0704
17.4144
17.769
18.1346
18.5116
18.9006
19.3019
19.716
20.1433
20.5846
21.0401
21.5106
21.9966
22.4988
23.0177
23.5542
24.109
24.6829
25.2767
25.8914
26.528
27.1776
27.8611
28.5695
29.3047
30.0684
30.8619
31.6869
32.5452
33.4385
34.3691
35.3389
36.3505
37.4061
38.5086
39.6606
40.8651
42.1255
43.445
44.8273
46.2764
47.7965
49.3921
51.0682
52.83
54.6834
56.6347
58.6906
60.8588
63.1474
65.5655
68.123
70.8309
73.7014
76.748
79.9857
83.4313
87.1036
91.0243
95.2124
99.6294
104.434
109.591
115.14
121.123
127.585
134.576
142.154
150.382
159.334
169.092
179.749
191.414
204.213
218.294
233.834
251.04
270.167
291.521
315.472
342.473
373.069
407.927
447.854
493.838
547.094
609.139
681.9
767.884
870.464
992.851
1140.14
1323.32
1551.2
1839.56
2211.18
2700.49
3359.39
4267.34
5595.48
7595.55
10763.3
16071.3
25615.7
44654.8
89256.4
217841
663682
2.34616e+06
9.12039e+06
4.93678e+07
2.06678e+06
6766.44
28.2158
0.425158
0.0268192
0.00510623
0.00198729
0.00117992
0.000888769
0.000762901
0.000702905
0.000672716
0.000657151
0.000649068
0.000644735
0.000642387
0.000641211
0.000640582
0.000640208
0.00064001
0.000639907
0.000639855
0.000639829
0.000639893
0.000639889
0.000639889
0.000639892
0.000639895
0.000639823
0.000639827
0.000639831
0.000639834
0.000639838
0.000639843
0.000639849
0.000639852
0.000639857
0.000639863
0.000639866
0.000639871
0.000639875
0.000639881
0.000639884
0.000639888
0.000639893
0.0006399
0.000639904
0.000639909
0.000639913
0.000639993
0.00063992
0.000639926
0.000639931
0.000639935
0.000640015
0.000639945
0.000639949
0.000639954
0.000640036
0.000639964
0.000640048
0.000640053
0.000639981
0.000639986
0.000639991
0.000639994
0.00064
0.000640003
0.000640009
0.000640013
0.000640017
0.000640023
0.000640026
0.00064003
0.000640036
0.00064004
0.000640046
0.00064005
0.000640054
0.000640058
0.000640064
0.000640068
0.000640072
0.000640078
0.000640082
0.000640086
0.000640092
0.000640096
0.0006401
0.000640105
0.000640111
0.000640115
0.000640119
0.000640124
0.000640129
0.000640134
0.000640139
0.000640143
0.000640148
0.000640153
0.000640157
0.000640238
0.000640168
0.000640171
0.000640176
0.000640179
0.000640184
0.000640189
0.000640194
0.000640198
0.000640203
0.000640208
0.000640212
0.000640216
0.00064022
0.000640228
0.000640232
0.000640236
0.000640241
0.000640246
0.000640251
0.000640255
0.000640261
0.000640267
0.000640271
0.000640277
0.000640281
0.000640287
0.000640291
0.000640295
0.000640376
0.000640304
0.000640307
0.000640313
0.000640317
0.000640321
0.000640326
0.000640331
0.000640335
0.00064034
0.000640421
0.00064035
0.000640431
0.000640435
0.000640363
0.000640368
0.000640373
0.000640377
0.000640381
0.000640387
0.000640393
0.000640396
0.000640402
0.000640406
0.00064041
0.000640414
0.000640421
0.000640424
0.000640428
0.000640434
0.000640438
0.000640443
0.000640446
0.000640451
0.000640532
0.000640461
0.000640466
0.00064047
0.000640474
0.000640555
0.000640483
0.000640563
0.00064049
0.000640496
0.000640502
0.000640507
0.00064059
0.000640518
0.000640524
0.00064053
0.000640533
0.000640538
0.000640621
0.000640549
0.000640631
0.00064056
0.000640639
0.000640568
0.00064065
0.000640578
0.000640582
0.000640588
0.000640592
0.000640598
0.000640525
0.000640529
0.000640533
0.000640539
0.000640619
0.000640625
0.000640553
0.000640558
0.000640562
0.000640566
0.000640573
0.000640576
0.00064058
0.000640587
0.00064059
0.000640594
0.000640599
0.000640603
0.000640607
0.000640688
0.000640617
0.000640621
0.000640627
0.000640708
0.000640636
0.000640641
0.000640645
0.000640649
0.000640654
0.00064066
0.000640665
0.000640746
0.000640675
0.000640679
0.000640685
0.000640689
0.000640693
0.000640697
0.000640702
0.000640783
0.000640712
0.000640791
0.0006408
0.000640804
0.000640733
0.000640737
0.000640742
0.000640822
0.000640827
0.000640756
0.00064076
0.000640842
0.00064077
0.000640775
0.00064078
0.000640785
0.000640789
0.000640794
0.000640797
0.000640802
0.000640807
0.00064081
0.000640817
0.000640822
0.000640826
0.000640907
0.000640834
0.00064084
0.000640845
0.00064085
0.000640857
0.000640861
0.000640865
0.000640869
0.000640874
0.000640879
0.000640884
0.000640889
0.000640969
0.000640973
0.000640903
0.000640908
0.000640914
0.000640917
0.000640923
0.000640927
0.000640931
0.000641012
0.000640939
0.000640945
0.00064095
0.000640955
0.00064096
0.00064104
0.000640969
0.000640973
0.000640978
0.000641059
0.000640986
0.000640991
0.000641073
0.000641002
0.000641083
0.000641011
0.000641091
0.000641021
0.000641102
0.000641031
0.000641113
0.000641041
0.000641046
0.000641049
0.000641054
0.000641057
0.000641063
0.000641067
0.000641148
0.000641076
0.000641079
0.000641083
0.000641166
0.00064117
0.0006411
0.000641181
0.000641186
0.000641192
0.000641199
0.000641204
0.000641131
0.000641212
0.000641141
0.000641144
0.00064115
0.000641231
0.00064116
0.000641165
0.000641169
0.00064125
0.000641179
0.00064126
0.00064119
0.000641271
0.000641199
0.000641202
0.000641207
0.000641211
0.000641292
0.00064122
0.000641227
0.000641307
0.000641236
0.000641241
0.000641322
0.000641251
0.000641255
0.000641259
0.00064134
0.000641344
0.000641273
0.000641278
0.000641283
0.000641288
0.00064137
0.000641297
0.000641303
0.000641231
0.000641313
0.000641241
0.000641323
0.000641251
0.000641256
0.000641338
0.000641265
0.000641269
0.000641275
0.000641355
0.000641282
0.000641287
0.000641369
0.000641296
0.0006413
0.000641382
0.000641388
0.000641392
0.000641321
0.000641401
0.000641406
0.000641335
0.000641338
0.000641346
0.000641426
0.000641355
0.000641358
0.00064144
0.000641368
0.000641451
0.000641455
0.00064146
0.000641465
0.000641393
0.000641396
0.000641402
0.000641405
0.000641487
0.000641491
0.000641496
0.000641424
0.000641506
0.000641435
0.000641439
0.000641444
0.00064145
0.000641532
0.000641459
0.00064154
0.000641469
0.000641549
0.000641555
0.000641559
0.000641563
0.000641493
0.000641497
0.000641578
0.000641507
0.000641588
0.000641593
0.000641522
0.000641526
0.000641531
0.000641535
0.00064154
0.00064162
0.000641549
0.00064163
0.000641559
0.000641563
0.000641644
0.000641572
0.000641578
0.000641658
0.000641663
0.000641667
0.000641596
0.0006416
0.000641605
0.000641609
0.000641614
0.000641622
0.000641627
0.000641632
0.000641636
0.000641641
0.000641645
0.000641651
0.000641655
0.00064166
0.000641665
0.00064167
0.000641675
0.000641756
0.000641683
0.000641765
0.000641771
0.000641774
0.000641704
0.000641708
)
;

boundaryField
{
    fixedWall
    {
        type            calculated;
        value           uniform 0;
    }
    outlet
    {
        type            calculated;
        value           uniform 0;
    }
    defaultFaces
    {
        type            empty;
    }
}


// ************************************************************************* //
