/*--------------------------------*- C++ -*----------------------------------*\
| =========                 |                                                 |
| \\      /  F ield         | OpenFOAM: The Open Source CFD Toolbox           |
|  \\    /   O peration     | Version:  2406                                  |
|   \\  /    A nd           | Website:  www.openfoam.com                      |
|    \\/     M anipulation  |                                                 |
\*---------------------------------------------------------------------------*/
FoamFile
{
    version     2.0;
    format      ascii;
    arch        "LSB;label=32;scalar=64";
    class       volScalarField;
    location    "3.4";
    object      T;
}
// * * * * * * * * * * * * * * * * * * * * * * * * * * * * * * * * * * * * * //

dimensions      [0 0 0 1 0 0 0];

internalField   nonuniform List<scalar> 
1000
(
316.078
356.145
391.51
423.269
452.137
478.617
503.075
525.79
546.981
566.82
585.45
602.986
619.528
635.157
649.947
663.958
677.245
689.855
701.832
713.214
724.034
734.324
744.112
753.425
762.287
770.719
778.743
786.377
793.641
800.55
807.12
813.368
819.307
824.951
830.312
835.403
840.237
844.823
849.173
853.297
857.205
860.907
864.411
867.726
870.862
873.825
876.624
879.266
881.759
884.109
886.324
888.409
890.371
892.216
893.949
895.577
897.104
898.536
899.878
901.134
902.308
903.406
904.431
905.388
906.28
907.111
907.884
908.603
909.271
909.89
910.465
910.997
911.49
911.945
912.365
912.751
913.108
913.437
913.74
914.018
914.274
914.508
914.722
914.917
915.096
915.259
915.407
915.541
915.664
915.774
915.874
915.965
916.046
916.12
916.185
916.244
916.297
916.344
916.386
916.423
916.456
916.485
916.51
916.533
916.552
916.569
916.584
916.596
916.607
916.616
916.624
916.63
916.635
916.639
916.642
916.645
916.647
916.648
916.649
916.649
916.649
916.649
916.649
916.648
916.647
916.646
916.645
916.644
916.642
916.641
916.64
916.639
916.637
916.636
916.635
916.634
916.633
916.632
916.631
916.63
916.629
916.628
916.627
916.627
916.626
916.625
916.625
916.624
916.624
916.623
916.623
916.622
916.622
916.621
916.621
916.621
916.62
916.62
916.62
916.62
916.619
916.619
916.619
916.618
916.618
916.618
916.617
916.617
916.616
916.616
916.616
916.615
916.615
916.614
916.614
916.613
916.612
916.612
916.611
916.61
916.61
916.609
916.608
916.607
916.607
916.606
916.605
916.604
916.603
916.602
916.601
916.6
916.599
916.598
916.596
916.595
916.594
916.593
916.592
916.59
916.589
916.588
916.586
916.585
916.583
916.582
916.58
916.579
916.578
916.576
916.574
916.573
916.571
916.57
916.568
916.567
916.565
916.563
916.562
916.56
916.559
916.557
916.555
916.554
916.552
916.551
916.549
916.547
916.546
916.544
916.543
916.541
916.539
916.538
916.536
916.535
916.533
916.531
916.53
916.528
916.527
916.525
916.524
916.522
916.521
916.519
916.518
916.516
916.515
916.513
916.512
916.511
916.509
916.508
916.507
916.505
916.504
916.503
916.501
916.5
916.499
916.498
916.496
916.495
916.494
916.493
916.492
916.491
916.49
916.489
916.488
916.487
916.486
916.486
916.485
916.484
916.483
916.483
916.482
916.482
916.481
916.481
916.48
916.48
916.479
916.479
916.479
916.478
916.478
916.478
916.478
916.478
916.478
916.478
916.478
916.478
916.478
916.478
916.478
916.478
916.478
916.478
916.478
916.478
916.479
916.479
916.479
916.479
916.479
916.48
916.48
916.48
916.481
916.481
916.481
916.481
916.482
916.482
916.482
916.483
916.483
916.483
916.483
916.484
916.484
916.484
916.485
916.485
916.485
916.486
916.486
916.486
916.487
916.487
916.487
916.488
916.488
916.488
916.489
916.489
916.489
916.49
916.49
916.491
916.491
916.491
916.492
916.492
916.493
916.494
916.494
916.495
916.495
916.496
916.497
916.498
916.498
916.499
916.5
916.501
916.502
916.503
916.504
916.505
916.506
916.507
916.508
916.509
916.51
916.512
916.513
916.514
916.515
916.516
916.518
916.519
916.52
916.521
916.522
916.524
916.525
916.526
916.527
916.528
916.529
916.531
916.532
916.533
916.534
916.535
916.536
916.537
916.538
916.539
916.54
916.541
916.541
916.542
916.543
916.544
916.544
916.545
916.546
916.546
916.547
916.547
916.547
916.548
916.548
916.548
916.548
916.548
916.548
916.548
916.548
916.548
916.547
916.547
916.546
916.545
916.544
916.543
916.541
916.54
916.538
916.536
916.534
916.531
916.528
916.525
916.522
916.519
916.515
916.511
916.508
916.503
916.499
916.495
916.491
916.487
916.483
916.479
916.475
916.472
916.468
916.466
916.463
916.461
916.46
916.459
916.458
916.458
916.459
916.46
916.462
916.464
916.466
916.469
916.472
916.475
916.479
916.482
916.486
916.49
916.493
916.497
916.5
916.503
916.507
916.509
916.512
916.515
916.517
916.519
916.522
916.524
916.526
916.528
916.531
916.533
916.535
916.537
916.54
916.542
916.544
916.546
916.548
916.55
916.551
916.551
916.551
916.549
916.547
916.544
916.54
916.535
916.529
916.522
916.514
916.505
916.496
916.486
916.476
916.466
916.457
916.448
916.439
916.431
916.424
916.417
916.411
916.405
916.399
916.392
916.386
916.379
916.373
916.368
916.365
916.364
916.365
916.37
916.378
916.389
916.402
916.415
916.426
916.432
916.427
916.403
916.351
916.262
916.128
915.947
915.717
915.4
914.8
913.118
907.079
880.949
660.477
508.688
414.501
359.517
328.86
312.194
303.238
298.449
295.893
294.53
293.803
293.415
293.209
293.098
293.04
293.008
292.992
292.983
292.978
292.976
292.974
292.974
292.973
292.973
292.973
292.973
292.973
292.973
292.973
292.973
292.973
292.973
292.973
292.973
292.973
292.973
292.973
292.973
292.974
292.974
292.974
292.974
292.974
292.974
292.974
292.974
292.974
292.974
292.974
292.974
292.974
292.974
292.974
292.974
292.974
292.974
292.974
292.974
292.974
292.974
292.974
292.975
292.975
292.975
292.975
292.975
292.975
292.975
292.975
292.975
292.975
292.975
292.975
292.975
292.975
292.975
292.975
292.975
292.975
292.975
292.975
292.975
292.975
292.976
292.976
292.976
292.976
292.976
292.976
292.976
292.976
292.976
292.976
292.976
292.976
292.976
292.976
292.976
292.976
292.976
292.976
292.976
292.976
292.976
292.976
292.976
292.976
292.977
292.977
292.977
292.977
292.977
292.977
292.977
292.977
292.977
292.977
292.977
292.977
292.977
292.977
292.977
292.977
292.977
292.977
292.977
292.977
292.977
292.977
292.978
292.978
292.978
292.978
292.978
292.978
292.978
292.978
292.978
292.978
292.978
292.978
292.978
292.978
292.978
292.978
292.978
292.978
292.978
292.978
292.978
292.978
292.978
292.979
292.979
292.979
292.979
292.979
292.979
292.979
292.979
292.979
292.979
292.979
292.979
292.979
292.979
292.979
292.979
292.979
292.979
292.979
292.979
292.979
292.979
292.979
292.98
292.98
292.98
292.98
292.98
292.98
292.98
292.98
292.98
292.98
292.98
292.98
292.98
292.98
292.98
292.98
292.98
292.98
292.98
292.98
292.98
292.98
292.981
292.981
292.981
292.981
292.981
292.981
292.981
292.981
292.981
292.981
292.981
292.981
292.981
292.981
292.981
292.981
292.981
292.981
292.981
292.981
292.981
292.981
292.981
292.982
292.982
292.982
292.982
292.982
292.982
292.982
292.982
292.982
292.982
292.982
292.982
292.982
292.982
292.982
292.982
292.982
292.982
292.982
292.982
292.982
292.982
292.983
292.983
292.983
292.983
292.983
292.983
292.983
292.983
292.983
292.983
292.983
292.983
292.983
292.983
292.983
292.983
292.983
292.983
292.983
292.983
292.983
292.983
292.983
292.984
292.984
292.984
292.984
292.984
292.984
292.984
292.984
292.984
292.984
292.984
292.984
292.984
292.984
292.984
292.984
292.984
292.984
292.984
292.984
292.984
292.984
292.985
292.985
292.985
292.985
292.985
292.985
292.985
292.985
292.985
292.985
292.985
292.985
292.985
292.985
292.985
292.985
292.985
292.985
292.985
292.985
292.985
292.985
292.985
292.986
292.986
292.986
292.986
292.986
292.986
292.986
292.986
292.986
292.986
292.986
292.986
292.986
292.986
292.986
292.986
292.986
292.986
292.986
292.986
292.986
292.986
292.987
292.987
292.987
292.987
292.987
292.987
292.987
292.987
292.987
292.987
292.987
292.987
292.987
292.987
292.987
292.987
292.987
292.987
292.987
292.987
292.987
292.987
292.987
292.988
292.988
292.988
292.988
292.988
292.988
292.988
292.988
292.988
292.988
292.988
292.988
292.988
292.988
292.988
292.988
292.988
292.988
292.988
292.988
292.988
292.988
292.988
292.989
292.989
292.989
292.989
292.989
292.989
292.989
292.989
292.989
292.989
292.989
292.989
292.989
292.989
292.989
292.989
292.989
292.989
292.989
292.989
292.989
292.989
292.99
292.99
292.99
292.99
292.99
292.99
292.99
292.99
292.99
292.99
292.99
292.99
292.99
292.99
292.99
292.99
292.99
292.99
292.99
292.99
292.99
292.99
292.99
292.991
292.991
292.991
292.991
292.991
292.991
292.991
292.991
292.991
292.991
292.991
292.991
292.991
292.991
292.991
292.991
292.991
292.991
292.991
292.991
292.991
292.991
292.992
292.992
292.992
292.992
292.992
292.992
292.992
292.992
292.992
292.992
292.992
292.992
292.992
292.992
292.992
)
;

boundaryField
{
    fixedWall
    {
        type            fixedValue;
        value           uniform 293;
    }
    outlet
    {
        type            inletOutlet;
        inletValue      uniform 293;
        value           uniform 292.992;
    }
    defaultFaces
    {
        type            empty;
    }
}


// ************************************************************************* //
