/*--------------------------------*- C++ -*----------------------------------*\
| =========                 |                                                 |
| \\      /  F ield         | OpenFOAM: The Open Source CFD Toolbox           |
|  \\    /   O peration     | Version:  2406                                  |
|   \\  /    A nd           | Website:  www.openfoam.com                      |
|    \\/     M anipulation  |                                                 |
\*---------------------------------------------------------------------------*/
FoamFile
{
    version     2.0;
    format      ascii;
    arch        "LSB;label=32;scalar=64";
    class       volVectorField;
    location    "3.4";
    object      U;
}
// * * * * * * * * * * * * * * * * * * * * * * * * * * * * * * * * * * * * * //

dimensions      [0 1 -1 0 0 0 0];

internalField   nonuniform List<vector> 
1000
(
(-6.66329e-06 0 0)
(-2.95549e-05 0 0)
(-7.01181e-05 0 0)
(-0.000121576 0 0)
(-0.000180673 0 0)
(-0.000245483 0 0)
(-0.000314684 0 0)
(-0.000387251 0 0)
(-0.000462372 0 0)
(-0.000539401 0 0)
(-0.000617816 0 0)
(-0.000697185 0 0)
(-0.00077715 0 0)
(-0.000857405 0 0)
(-0.000937692 0 0)
(-0.00101778 0 0)
(-0.00109749 0 0)
(-0.00117663 0 0)
(-0.00125507 0 0)
(-0.00133266 0 0)
(-0.0014093 0 0)
(-0.00148488 0 0)
(-0.00155931 0 0)
(-0.00163251 0 0)
(-0.00170441 0 0)
(-0.00177495 0 0)
(-0.00184407 0 0)
(-0.00191174 0 0)
(-0.00197791 0 0)
(-0.00204255 0 0)
(-0.00210562 0 0)
(-0.00216712 0 0)
(-0.00222702 0 0)
(-0.00228531 0 0)
(-0.00234197 0 0)
(-0.00239702 0 0)
(-0.00245044 0 0)
(-0.00250224 0 0)
(-0.00255243 0 0)
(-0.00260101 0 0)
(-0.002648 0 0)
(-0.00269341 0 0)
(-0.00273726 0 0)
(-0.00277956 0 0)
(-0.00282035 0 0)
(-0.00285964 0 0)
(-0.00289746 0 0)
(-0.00293383 0 0)
(-0.00296879 0 0)
(-0.00300236 0 0)
(-0.00303457 0 0)
(-0.00306545 0 0)
(-0.00309504 0 0)
(-0.00312338 0 0)
(-0.00315048 0 0)
(-0.0031764 0 0)
(-0.00320115 0 0)
(-0.00322479 0 0)
(-0.00324733 0 0)
(-0.00326883 0 0)
(-0.00328931 0 0)
(-0.00330881 0 0)
(-0.00332736 0 0)
(-0.003345 0 0)
(-0.00336177 0 0)
(-0.00337769 0 0)
(-0.00339281 0 0)
(-0.00340715 0 0)
(-0.00342075 0 0)
(-0.00343364 0 0)
(-0.00344585 0 0)
(-0.00345742 0 0)
(-0.00346838 0 0)
(-0.00347872 0 0)
(-0.00348868 0 0)
(-0.00349778 0 0)
(-0.0035066 0 0)
(-0.00351476 0 0)
(-0.00352247 0 0)
(-0.00353008 0 0)
(-0.00353695 0 0)
(-0.0035436 0 0)
(-0.00354986 0 0)
(-0.00355578 0 0)
(-0.00356138 0 0)
(-0.00356669 0 0)
(-0.00357171 0 0)
(-0.00357646 0 0)
(-0.00358097 0 0)
(-0.00358525 0 0)
(-0.00358931 0 0)
(-0.00359317 0 0)
(-0.00359684 0 0)
(-0.00360034 0 0)
(-0.00360368 0 0)
(-0.00360686 0 0)
(-0.00360991 0 0)
(-0.00361283 0 0)
(-0.00361562 0 0)
(-0.00361831 0 0)
(-0.00362089 0 0)
(-0.00362338 0 0)
(-0.00362579 0 0)
(-0.00362811 0 0)
(-0.00363036 0 0)
(-0.00363255 0 0)
(-0.00363467 0 0)
(-0.00363674 0 0)
(-0.00363876 0 0)
(-0.00364074 0 0)
(-0.00364266 0 0)
(-0.00364456 0 0)
(-0.00364639 0 0)
(-0.00364829 0 0)
(-0.00365006 0 0)
(-0.00365179 0 0)
(-0.00365359 0 0)
(-0.0036553 0 0)
(-0.00365703 0 0)
(-0.00365872 0 0)
(-0.00366041 0 0)
(-0.00366208 0 0)
(-0.00366375 0 0)
(-0.0036654 0 0)
(-0.00366704 0 0)
(-0.00366868 0 0)
(-0.00367031 0 0)
(-0.00367194 0 0)
(-0.00367357 0 0)
(-0.00367519 0 0)
(-0.0036768 0 0)
(-0.00367842 0 0)
(-0.00368003 0 0)
(-0.00368164 0 0)
(-0.00368325 0 0)
(-0.00368487 0 0)
(-0.00368648 0 0)
(-0.00368809 0 0)
(-0.0036897 0 0)
(-0.00369131 0 0)
(-0.00369293 0 0)
(-0.00369454 0 0)
(-0.00369616 0 0)
(-0.00369778 0 0)
(-0.0036994 0 0)
(-0.00370102 0 0)
(-0.00370264 0 0)
(-0.00370426 0 0)
(-0.00370589 0 0)
(-0.00370751 0 0)
(-0.00370914 0 0)
(-0.00371077 0 0)
(-0.00371241 0 0)
(-0.00371404 0 0)
(-0.00371568 0 0)
(-0.00371731 0 0)
(-0.00371895 0 0)
(-0.0037206 0 0)
(-0.00372224 0 0)
(-0.00372388 0 0)
(-0.00372553 0 0)
(-0.00372718 0 0)
(-0.00372883 0 0)
(-0.00373048 0 0)
(-0.00373213 0 0)
(-0.00373378 0 0)
(-0.00373544 0 0)
(-0.0037371 0 0)
(-0.00373875 0 0)
(-0.00374041 0 0)
(-0.00374208 0 0)
(-0.00374374 0 0)
(-0.0037454 0 0)
(-0.00374707 0 0)
(-0.00374873 0 0)
(-0.0037504 0 0)
(-0.00375207 0 0)
(-0.00375374 0 0)
(-0.00375541 0 0)
(-0.00375708 0 0)
(-0.00375876 0 0)
(-0.00376043 0 0)
(-0.00376211 0 0)
(-0.00376378 0 0)
(-0.00376546 0 0)
(-0.00376714 0 0)
(-0.00376882 0 0)
(-0.0037705 0 0)
(-0.00377219 0 0)
(-0.00377387 0 0)
(-0.00377555 0 0)
(-0.00377724 0 0)
(-0.00377892 0 0)
(-0.00378061 0 0)
(-0.0037823 0 0)
(-0.00378399 0 0)
(-0.00378568 0 0)
(-0.00378737 0 0)
(-0.00378906 0 0)
(-0.00379076 0 0)
(-0.00379245 0 0)
(-0.00379414 0 0)
(-0.00379584 0 0)
(-0.00379754 0 0)
(-0.00379923 0 0)
(-0.00380093 0 0)
(-0.00380263 0 0)
(-0.00380433 0 0)
(-0.00380603 0 0)
(-0.00380774 0 0)
(-0.00380944 0 0)
(-0.00381114 0 0)
(-0.00381285 0 0)
(-0.00381456 0 0)
(-0.00381626 0 0)
(-0.00381797 0 0)
(-0.00381968 0 0)
(-0.00382139 0 0)
(-0.0038231 0 0)
(-0.00382481 0 0)
(-0.00382652 0 0)
(-0.00382824 0 0)
(-0.00382995 0 0)
(-0.00383167 0 0)
(-0.00383339 0 0)
(-0.00383511 0 0)
(-0.00383683 0 0)
(-0.00383855 0 0)
(-0.00384027 0 0)
(-0.00384199 0 0)
(-0.00384372 0 0)
(-0.00384544 0 0)
(-0.00384717 0 0)
(-0.0038489 0 0)
(-0.00385063 0 0)
(-0.00385236 0 0)
(-0.00385409 0 0)
(-0.00385582 0 0)
(-0.00385756 0 0)
(-0.00385929 0 0)
(-0.00386103 0 0)
(-0.00386277 0 0)
(-0.00386451 0 0)
(-0.00386625 0 0)
(-0.00386799 0 0)
(-0.00386973 0 0)
(-0.00387148 0 0)
(-0.00387322 0 0)
(-0.00387497 0 0)
(-0.00387672 0 0)
(-0.00387847 0 0)
(-0.00388022 0 0)
(-0.00388198 0 0)
(-0.00388373 0 0)
(-0.00388549 0 0)
(-0.00388724 0 0)
(-0.003889 0 0)
(-0.00389076 0 0)
(-0.00389252 0 0)
(-0.00389428 0 0)
(-0.00389604 0 0)
(-0.00389781 0 0)
(-0.00389957 0 0)
(-0.00390134 0 0)
(-0.00390311 0 0)
(-0.00390488 0 0)
(-0.00390665 0 0)
(-0.00390842 0 0)
(-0.0039102 0 0)
(-0.00391197 0 0)
(-0.00391375 0 0)
(-0.00391553 0 0)
(-0.00391731 0 0)
(-0.00391909 0 0)
(-0.00392087 0 0)
(-0.00392265 0 0)
(-0.00392444 0 0)
(-0.00392622 0 0)
(-0.00392801 0 0)
(-0.0039298 0 0)
(-0.0039316 0 0)
(-0.00393339 0 0)
(-0.00393519 0 0)
(-0.00393698 0 0)
(-0.00393878 0 0)
(-0.00394058 0 0)
(-0.00394239 0 0)
(-0.00394419 0 0)
(-0.003946 0 0)
(-0.00394781 0 0)
(-0.00394962 0 0)
(-0.00395143 0 0)
(-0.00395325 0 0)
(-0.00395506 0 0)
(-0.00395688 0 0)
(-0.0039587 0 0)
(-0.00396052 0 0)
(-0.00396235 0 0)
(-0.00396418 0 0)
(-0.00396601 0 0)
(-0.00396784 0 0)
(-0.00396967 0 0)
(-0.00397151 0 0)
(-0.00397334 0 0)
(-0.00397518 0 0)
(-0.00397702 0 0)
(-0.00397887 0 0)
(-0.00398071 0 0)
(-0.00398256 0 0)
(-0.00398441 0 0)
(-0.00398626 0 0)
(-0.00398812 0 0)
(-0.00398997 0 0)
(-0.00399183 0 0)
(-0.00399369 0 0)
(-0.00399555 0 0)
(-0.00399741 0 0)
(-0.00399928 0 0)
(-0.00400114 0 0)
(-0.00400301 0 0)
(-0.00400488 0 0)
(-0.00400676 0 0)
(-0.00400863 0 0)
(-0.00401051 0 0)
(-0.00401239 0 0)
(-0.00401427 0 0)
(-0.00401615 0 0)
(-0.00401803 0 0)
(-0.00401992 0 0)
(-0.0040218 0 0)
(-0.00402369 0 0)
(-0.00402558 0 0)
(-0.00402748 0 0)
(-0.00402937 0 0)
(-0.00403127 0 0)
(-0.00403316 0 0)
(-0.00403506 0 0)
(-0.00403696 0 0)
(-0.00403886 0 0)
(-0.00404077 0 0)
(-0.00404267 0 0)
(-0.00404458 0 0)
(-0.00404649 0 0)
(-0.00404839 0 0)
(-0.00405031 0 0)
(-0.00405222 0 0)
(-0.00405413 0 0)
(-0.00405605 0 0)
(-0.00405796 0 0)
(-0.00405988 0 0)
(-0.0040618 0 0)
(-0.00406372 0 0)
(-0.00406565 0 0)
(-0.00406757 0 0)
(-0.0040695 0 0)
(-0.00407143 0 0)
(-0.00407336 0 0)
(-0.0040753 0 0)
(-0.00407723 0 0)
(-0.00407917 0 0)
(-0.00408111 0 0)
(-0.00408305 0 0)
(-0.004085 0 0)
(-0.00408694 0 0)
(-0.00408889 0 0)
(-0.00409085 0 0)
(-0.0040928 0 0)
(-0.00409476 0 0)
(-0.00409672 0 0)
(-0.00409868 0 0)
(-0.00410065 0 0)
(-0.00410261 0 0)
(-0.00410458 0 0)
(-0.00410656 0 0)
(-0.00410853 0 0)
(-0.00411051 0 0)
(-0.00411249 0 0)
(-0.00411447 0 0)
(-0.00411646 0 0)
(-0.00411845 0 0)
(-0.00412044 0 0)
(-0.00412243 0 0)
(-0.00412442 0 0)
(-0.00412642 0 0)
(-0.00412842 0 0)
(-0.00413042 0 0)
(-0.00413242 0 0)
(-0.00413443 0 0)
(-0.00413644 0 0)
(-0.00413845 0 0)
(-0.00414046 0 0)
(-0.00414248 0 0)
(-0.0041445 0 0)
(-0.00414652 0 0)
(-0.00414854 0 0)
(-0.00415056 0 0)
(-0.00415259 0 0)
(-0.00415462 0 0)
(-0.00415665 0 0)
(-0.00415869 0 0)
(-0.00416072 0 0)
(-0.00416276 0 0)
(-0.0041648 0 0)
(-0.00416685 0 0)
(-0.00416889 0 0)
(-0.00417094 0 0)
(-0.00417299 0 0)
(-0.00417504 0 0)
(-0.0041771 0 0)
(-0.00417916 0 0)
(-0.00418122 0 0)
(-0.00418328 0 0)
(-0.00418535 0 0)
(-0.00418742 0 0)
(-0.0041895 0 0)
(-0.00419157 0 0)
(-0.00419366 0 0)
(-0.00419574 0 0)
(-0.00419783 0 0)
(-0.00419993 0 0)
(-0.00420203 0 0)
(-0.00420413 0 0)
(-0.00420624 0 0)
(-0.00420835 0 0)
(-0.00421046 0 0)
(-0.00421258 0 0)
(-0.0042147 0 0)
(-0.00421682 0 0)
(-0.00421894 0 0)
(-0.00422106 0 0)
(-0.00422319 0 0)
(-0.0042253 0 0)
(-0.00422742 0 0)
(-0.00422953 0 0)
(-0.00423164 0 0)
(-0.00423374 0 0)
(-0.00423583 0 0)
(-0.00423791 0 0)
(-0.00423999 0 0)
(-0.00424206 0 0)
(-0.00424411 0 0)
(-0.00424616 0 0)
(-0.00424819 0 0)
(-0.00425022 0 0)
(-0.00425223 0 0)
(-0.00425424 0 0)
(-0.00425625 0 0)
(-0.00425824 0 0)
(-0.00426024 0 0)
(-0.00426223 0 0)
(-0.00426422 0 0)
(-0.00426622 0 0)
(-0.00426823 0 0)
(-0.00427024 0 0)
(-0.00427226 0 0)
(-0.00427429 0 0)
(-0.00427634 0 0)
(-0.0042784 0 0)
(-0.00428048 0 0)
(-0.00428257 0 0)
(-0.00428468 0 0)
(-0.00428681 0 0)
(-0.00428895 0 0)
(-0.0042911 0 0)
(-0.00429327 0 0)
(-0.00429545 0 0)
(-0.00429763 0 0)
(-0.00429982 0 0)
(-0.00430202 0 0)
(-0.00430421 0 0)
(-0.0043064 0 0)
(-0.00430858 0 0)
(-0.00431076 0 0)
(-0.00431293 0 0)
(-0.00431509 0 0)
(-0.00431724 0 0)
(-0.00431939 0 0)
(-0.00432153 0 0)
(-0.00432366 0 0)
(-0.0043258 0 0)
(-0.00432793 0 0)
(-0.00433007 0 0)
(-0.00433222 0 0)
(-0.00433437 0 0)
(-0.00433654 0 0)
(-0.00433873 0 0)
(-0.00434093 0 0)
(-0.00434315 0 0)
(-0.00434539 0 0)
(-0.00434765 0 0)
(-0.00434993 0 0)
(-0.00435222 0 0)
(-0.00435453 0 0)
(-0.00435684 0 0)
(-0.00435914 0 0)
(-0.00436144 0 0)
(-0.00436372 0 0)
(-0.00436597 0 0)
(-0.00436818 0 0)
(-0.00437034 0 0)
(-0.00437242 0 0)
(-0.00437446 0 0)
(-0.00437643 0 0)
(-0.0043783 0 0)
(-0.00438013 0 0)
(-0.00438189 0 0)
(-0.00438361 0 0)
(-0.0043853 0 0)
(-0.00438698 0 0)
(-0.00438866 0 0)
(-0.00439034 0 0)
(-0.00439202 0 0)
(-0.00439368 0 0)
(-0.0043953 0 0)
(-0.00439682 0 0)
(-0.0043982 0 0)
(-0.00439938 0 0)
(-0.00440031 0 0)
(-0.00440095 0 0)
(-0.00440127 0 0)
(-0.00440133 0 0)
(-0.00440105 0 0)
(-0.00440059 0 0)
(-0.00439927 0 0)
(-0.00439943 0 0)
(-0.00439746 0 0)
(-0.00439634 0 0)
(-0.00439564 0 0)
(-0.004393 0 0)
(-0.00439206 0 0)
(-0.00438722 0 0)
(-0.00437782 0 0)
(-0.00435825 0 0)
(-0.00432345 0 0)
(-0.0042183 0 0)
(-0.00406923 0 0)
(-0.0035634 0 0)
(-0.00357347 0 0)
(0.00112816 0 0)
(0.0273799 0 0)
(0.066388 0 0)
(0.0925499 0 0)
(0.105969 0 0)
(0.11243 0 0)
(0.115314 0 0)
(0.116601 0 0)
(0.117166 0 0)
(0.117446 0 0)
(0.11754 0 0)
(0.117707 0 0)
(0.117692 0 0)
(0.117682 0 0)
(0.117696 0 0)
(0.1177 0 0)
(0.117768 0 0)
(0.117711 0 0)
(0.117663 0 0)
(0.11775 0 0)
(0.117687 0 0)
(0.117719 0 0)
(0.117708 0 0)
(0.117696 0 0)
(0.117681 0 0)
(0.117676 0 0)
(0.117764 0 0)
(0.117619 0 0)
(0.117716 0 0)
(0.117719 0 0)
(0.117609 0 0)
(0.117717 0 0)
(0.117698 0 0)
(0.117645 0 0)
(0.117676 0 0)
(0.117659 0 0)
(0.117656 0 0)
(0.117698 0 0)
(0.117655 0 0)
(0.117637 0 0)
(0.117659 0 0)
(0.117667 0 0)
(0.11763 0 0)
(0.117664 0 0)
(0.117644 0 0)
(0.11762 0 0)
(0.117686 0 0)
(0.117607 0 0)
(0.117607 0 0)
(0.1177 0 0)
(0.117609 0 0)
(0.117593 0 0)
(0.117642 0 0)
(0.117649 0 0)
(0.117595 0 0)
(0.117619 0 0)
(0.117642 0 0)
(0.117571 0 0)
(0.117642 0 0)
(0.117628 0 0)
(0.117542 0 0)
(0.117645 0 0)
(0.117623 0 0)
(0.117555 0 0)
(0.117632 0 0)
(0.117554 0 0)
(0.117623 0 0)
(0.117608 0 0)
(0.117545 0 0)
(0.11762 0 0)
(0.117538 0 0)
(0.117614 0 0)
(0.117599 0 0)
(0.117526 0 0)
(0.117614 0 0)
(0.117553 0 0)
(0.117559 0 0)
(0.117572 0 0)
(0.11759 0 0)
(0.117527 0 0)
(0.117573 0 0)
(0.117584 0 0)
(0.117519 0 0)
(0.117575 0 0)
(0.117539 0 0)
(0.117559 0 0)
(0.117544 0 0)
(0.117525 0 0)
(0.117577 0 0)
(0.117512 0 0)
(0.117552 0 0)
(0.117549 0 0)
(0.117504 0 0)
(0.117561 0 0)
(0.117506 0 0)
(0.117527 0 0)
(0.117527 0 0)
(0.117557 0 0)
(0.117513 0 0)
(0.117459 0 0)
(0.117544 0 0)
(0.117565 0 0)
(0.11746 0 0)
(0.11753 0 0)
(0.11754 0 0)
(0.117444 0 0)
(0.117535 0 0)
(0.117528 0 0)
(0.117486 0 0)
(0.117469 0 0)
(0.117513 0 0)
(0.117517 0 0)
(0.117469 0 0)
(0.117473 0 0)
(0.11754 0 0)
(0.117485 0 0)
(0.117429 0 0)
(0.117503 0 0)
(0.11753 0 0)
(0.117427 0 0)
(0.117492 0 0)
(0.117507 0 0)
(0.117435 0 0)
(0.117491 0 0)
(0.117467 0 0)
(0.11745 0 0)
(0.117496 0 0)
(0.117453 0 0)
(0.11744 0 0)
(0.117504 0 0)
(0.117434 0 0)
(0.117442 0 0)
(0.117502 0 0)
(0.117414 0 0)
(0.117454 0 0)
(0.11748 0 0)
(0.117422 0 0)
(0.117432 0 0)
(0.117453 0 0)
(0.117468 0 0)
(0.117425 0 0)
(0.117434 0 0)
(0.117424 0 0)
(0.117446 0 0)
(0.117471 0 0)
(0.117388 0 0)
(0.117421 0 0)
(0.117481 0 0)
(0.11742 0 0)
(0.117374 0 0)
(0.117441 0 0)
(0.117459 0 0)
(0.117389 0 0)
(0.117402 0 0)
(0.117467 0 0)
(0.117377 0 0)
(0.117427 0 0)
(0.117411 0 0)
(0.117397 0 0)
(0.117452 0 0)
(0.117342 0 0)
(0.117426 0 0)
(0.117427 0 0)
(0.117406 0 0)
(0.117395 0 0)
(0.117362 0 0)
(0.117408 0 0)
(0.117428 0 0)
(0.117366 0 0)
(0.117401 0 0)
(0.1174 0 0)
(0.117358 0 0)
(0.11742 0 0)
(0.117366 0 0)
(0.117373 0 0)
(0.11742 0 0)
(0.117348 0 0)
(0.117377 0 0)
(0.1174 0 0)
(0.117366 0 0)
(0.11735 0 0)
(0.1174 0 0)
(0.117396 0 0)
(0.117313 0 0)
(0.117391 0 0)
(0.117404 0 0)
(0.117337 0 0)
(0.117333 0 0)
(0.117376 0 0)
(0.117403 0 0)
(0.11732 0 0)
(0.117348 0 0)
(0.117409 0 0)
(0.117335 0 0)
(0.117312 0 0)
(0.117366 0 0)
(0.117403 0 0)
(0.117323 0 0)
(0.117296 0 0)
(0.117386 0 0)
(0.117365 0 0)
(0.117312 0 0)
(0.117354 0 0)
(0.11734 0 0)
(0.117345 0 0)
(0.11733 0 0)
(0.11735 0 0)
(0.117313 0 0)
(0.117339 0 0)
(0.11737 0 0)
(0.117309 0 0)
(0.11733 0 0)
(0.117325 0 0)
(0.117345 0 0)
(0.117294 0 0)
(0.11735 0 0)
(0.117344 0 0)
(0.11729 0 0)
(0.117334 0 0)
(0.117321 0 0)
(0.117304 0 0)
(0.117322 0 0)
(0.117346 0 0)
(0.117297 0 0)
(0.117318 0 0)
(0.117293 0 0)
(0.117314 0 0)
(0.117347 0 0)
(0.117283 0 0)
(0.117314 0 0)
(0.117296 0 0)
(0.117304 0 0)
(0.117336 0 0)
(0.117293 0 0)
(0.117267 0 0)
(0.117331 0 0)
(0.117304 0 0)
(0.117286 0 0)
(0.117282 0 0)
(0.117295 0 0)
(0.117332 0 0)
(0.117273 0 0)
(0.117289 0 0)
(0.117298 0 0)
(0.11728 0 0)
(0.117305 0 0)
(0.117286 0 0)
(0.117286 0 0)
(0.117271 0 0)
(0.117288 0 0)
(0.117318 0 0)
(0.117263 0 0)
(0.117278 0 0)
(0.117284 0 0)
(0.11726 0 0)
(0.117287 0 0)
(0.117311 0 0)
(0.117256 0 0)
(0.117269 0 0)
(0.117261 0 0)
(0.117302 0 0)
(0.117267 0 0)
(0.117253 0 0)
(0.117296 0 0)
(0.117246 0 0)
(0.117274 0 0)
(0.117268 0 0)
(0.117274 0 0)
(0.117244 0 0)
(0.117273 0 0)
(0.117302 0 0)
(0.117211 0 0)
(0.117276 0 0)
(0.117296 0 0)
(0.117235 0 0)
(0.117235 0 0)
(0.117269 0 0)
(0.117281 0 0)
(0.117234 0 0)
(0.117252 0 0)
(0.117285 0 0)
(0.117233 0 0)
(0.117249 0 0)
(0.117264 0 0)
(0.117223 0 0)
(0.117268 0 0)
(0.117252 0 0)
(0.117241 0 0)
(0.117257 0 0)
(0.117243 0 0)
(0.117223 0 0)
(0.117265 0 0)
(0.117246 0 0)
(0.117239 0 0)
(0.117231 0 0)
(0.117227 0 0)
(0.117285 0 0)
(0.117212 0 0)
(0.117247 0 0)
(0.117236 0 0)
(0.117208 0 0)
(0.117266 0 0)
(0.117244 0 0)
(0.11722 0 0)
(0.117218 0 0)
(0.117253 0 0)
(0.117231 0 0)
(0.117224 0 0)
(0.117224 0 0)
(0.117233 0 0)
(0.117257 0 0)
(0.117207 0 0)
(0.117225 0 0)
(0.11723 0 0)
(0.117217 0 0)
(0.117232 0 0)
(0.117247 0 0)
(0.117205 0 0)
(0.117219 0 0)
(0.117213 0 0)
(0.11723 0 0)
(0.117247 0 0)
(0.117208 0 0)
(0.117192 0 0)
(0.117244 0 0)
(0.117222 0 0)
(0.117206 0 0)
(0.117207 0 0)
(0.117223 0 0)
(0.117253 0 0)
(0.117164 0 0)
(0.117228 0 0)
(0.117247 0 0)
(0.11719 0 0)
(0.117183 0 0)
(0.11722 0 0)
(0.117249 0 0)
(0.11718 0 0)
(0.117219 0 0)
(0.117198 0 0)
(0.117193 0 0)
(0.117235 0 0)
(0.11724 0 0)
(0.117178 0 0)
(0.117177 0 0)
(0.117223 0 0)
(0.117201 0 0)
(0.117216 0 0)
(0.117174 0 0)
(0.117205 0 0)
(0.117233 0 0)
(0.117223 0 0)
(0.117149 0 0)
(0.117202 0 0)
(0.117242 0 0)
(0.117171 0 0)
(0.117208 0 0)
(0.117192 0 0)
(0.117213 0 0)
(0.117197 0 0)
(0.117179 0 0)
(0.117232 0 0)
(0.117153 0 0)
(0.117202 0 0)
(0.117234 0 0)
(0.117166 0 0)
(0.117206 0 0)
(0.117177 0 0)
(0.117214 0 0)
(0.117197 0 0)
(0.117183 0 0)
(0.117163 0 0)
(0.117195 0 0)
(0.117239 0 0)
(0.117162 0 0)
(0.117198 0 0)
(0.117188 0 0)
(0.11718 0 0)
(0.117215 0 0)
(0.117163 0 0)
(0.1172 0 0)
(0.117169 0 0)
(0.117203 0 0)
(0.117221 0 0)
(0.117135 0 0)
(0.117204 0 0)
(0.117215 0 0)
(0.117168 0 0)
(0.117161 0 0)
(0.117198 0 0)
(0.117217 0 0)
(0.117157 0 0)
(0.117175 0 0)
(0.117216 0 0)
(0.117163 0 0)
(0.117177 0 0)
(0.117211 0 0)
(0.117163 0 0)
(0.117176 0 0)
(0.117211 0 0)
(0.117161 0 0)
(0.117175 0 0)
(0.117211 0 0)
(0.117161 0 0)
(0.117172 0 0)
(0.117217 0 0)
(0.117147 0 0)
(0.117176 0 0)
(0.117226 0 0)
(0.11714 0 0)
(0.117177 0 0)
(0.117224 0 0)
(0.117135 0 0)
(0.117178 0 0)
(0.117219 0 0)
(0.117149 0 0)
(0.117186 0 0)
(0.117167 0 0)
(0.117182 0 0)
(0.117197 0 0)
(0.117162 0 0)
(0.117155 0 0)
(0.117197 0 0)
(0.117204 0 0)
(0.117125 0 0)
(0.117192 0 0)
(0.117205 0 0)
(0.117154 0 0)
(0.117159 0 0)
(0.117194 0 0)
(0.117161 0 0)
(0.117181 0 0)
(0.117191 0 0)
(0.11716 0 0)
(0.117156 0 0)
(0.117178 0 0)
(0.117199 0 0)
(0.117164 0 0)
(0.117148 0 0)
(0.117191 0 0)
(0.1172 0 0)
(0.117153 0 0)
(0.117178 0 0)
(0.117172 0 0)
(0.117145 0 0)
(0.117201 0 0)
(0.117189 0 0)
(0.117153 0 0)
(0.117148 0 0)
(0.117204 0 0)
(0.117177 0 0)
(0.117159 0 0)
(0.117147 0 0)
(0.117166 0 0)
(0.117219 0 0)
(0.117185 0 0)
(0.117141 0 0)
(0.117162 0 0)
(0.117182 0 0)
(0.117176 0 0)
(0.117172 0 0)
(0.117173 0 0)
)
;

boundaryField
{
    fixedWall
    {
        type            fixedValue;
        value           uniform (0 0 0);
    }
    outlet
    {
        type            pressureInletOutletVelocity;
        value           uniform (0.117173 0 0);
    }
    defaultFaces
    {
        type            empty;
    }
}


// ************************************************************************* //
