/*--------------------------------*- C++ -*----------------------------------*\
| =========                 |                                                 |
| \\      /  F ield         | OpenFOAM: The Open Source CFD Toolbox           |
|  \\    /   O peration     | Version:  2406                                  |
|   \\  /    A nd           | Website:  www.openfoam.com                      |
|    \\/     M anipulation  |                                                 |
\*---------------------------------------------------------------------------*/
FoamFile
{
    version     2.0;
    format      ascii;
    arch        "LSB;label=32;scalar=64";
    class       volVectorField;
    location    "6.3";
    object      U;
}
// * * * * * * * * * * * * * * * * * * * * * * * * * * * * * * * * * * * * * //

dimensions      [0 1 -1 0 0 0 0];

internalField   nonuniform List<vector> 
1000
(
(-2.05668e-06 0 0)
(-9.52955e-06 0 0)
(-2.38541e-05 0 0)
(-4.30921e-05 0 0)
(-6.59462e-05 0 0)
(-9.16454e-05 0 0)
(-0.000119667 0 0)
(-0.000149592 0 0)
(-0.00018108 0 0)
(-0.00021385 0 0)
(-0.000247674 0 0)
(-0.000282358 0 0)
(-0.00031774 0 0)
(-0.000353682 0 0)
(-0.000390064 0 0)
(-0.00042678 0 0)
(-0.000463741 0 0)
(-0.000500863 0 0)
(-0.000538078 0 0)
(-0.000575318 0 0)
(-0.000612528 0 0)
(-0.000649655 0 0)
(-0.000686654 0 0)
(-0.000723481 0 0)
(-0.000760098 0 0)
(-0.00079647 0 0)
(-0.000832566 0 0)
(-0.000868355 0 0)
(-0.000903812 0 0)
(-0.000938912 0 0)
(-0.000973633 0 0)
(-0.00100795 0 0)
(-0.00104186 0 0)
(-0.00107533 0 0)
(-0.00110835 0 0)
(-0.0011409 0 0)
(-0.00117298 0 0)
(-0.00120457 0 0)
(-0.00123567 0 0)
(-0.00126625 0 0)
(-0.00129633 0 0)
(-0.00132588 0 0)
(-0.0013549 0 0)
(-0.0013834 0 0)
(-0.00141135 0 0)
(-0.00143877 0 0)
(-0.00146564 0 0)
(-0.00149197 0 0)
(-0.00151776 0 0)
(-0.00154299 0 0)
(-0.00156769 0 0)
(-0.00159183 0 0)
(-0.00161543 0 0)
(-0.00163849 0 0)
(-0.00166101 0 0)
(-0.001683 0 0)
(-0.00170444 0 0)
(-0.00172536 0 0)
(-0.00174575 0 0)
(-0.00176562 0 0)
(-0.00178498 0 0)
(-0.00180382 0 0)
(-0.00182215 0 0)
(-0.00183998 0 0)
(-0.00185732 0 0)
(-0.00187417 0 0)
(-0.00189054 0 0)
(-0.00190644 0 0)
(-0.00192186 0 0)
(-0.00193683 0 0)
(-0.00195134 0 0)
(-0.00196541 0 0)
(-0.00197904 0 0)
(-0.00199224 0 0)
(-0.00200502 0 0)
(-0.00201738 0 0)
(-0.00202934 0 0)
(-0.0020409 0 0)
(-0.00205207 0 0)
(-0.00206286 0 0)
(-0.00207328 0 0)
(-0.00208334 0 0)
(-0.00209304 0 0)
(-0.00210239 0 0)
(-0.0021114 0 0)
(-0.00212009 0 0)
(-0.00212845 0 0)
(-0.0021365 0 0)
(-0.00214424 0 0)
(-0.00215168 0 0)
(-0.00215884 0 0)
(-0.00216572 0 0)
(-0.00217232 0 0)
(-0.00217866 0 0)
(-0.00218474 0 0)
(-0.00219058 0 0)
(-0.00219617 0 0)
(-0.00220153 0 0)
(-0.00220666 0 0)
(-0.00221157 0 0)
(-0.00221628 0 0)
(-0.00222077 0 0)
(-0.00222507 0 0)
(-0.00222918 0 0)
(-0.00223311 0 0)
(-0.00223685 0 0)
(-0.00224043 0 0)
(-0.00224384 0 0)
(-0.00224708 0 0)
(-0.00225018 0 0)
(-0.00225313 0 0)
(-0.00225594 0 0)
(-0.00225863 0 0)
(-0.00226116 0 0)
(-0.00226357 0 0)
(-0.00226586 0 0)
(-0.00226804 0 0)
(-0.00227011 0 0)
(-0.00227207 0 0)
(-0.00227393 0 0)
(-0.0022757 0 0)
(-0.00227738 0 0)
(-0.00227896 0 0)
(-0.00228046 0 0)
(-0.00228189 0 0)
(-0.00228323 0 0)
(-0.0022845 0 0)
(-0.0022857 0 0)
(-0.00228684 0 0)
(-0.00228791 0 0)
(-0.00228892 0 0)
(-0.00228987 0 0)
(-0.00229077 0 0)
(-0.00229162 0 0)
(-0.00229241 0 0)
(-0.00229316 0 0)
(-0.00229387 0 0)
(-0.00229453 0 0)
(-0.00229516 0 0)
(-0.00229574 0 0)
(-0.0022963 0 0)
(-0.00229681 0 0)
(-0.0022973 0 0)
(-0.00229775 0 0)
(-0.00229818 0 0)
(-0.00229858 0 0)
(-0.00229895 0 0)
(-0.0022993 0 0)
(-0.00229963 0 0)
(-0.00229993 0 0)
(-0.00230022 0 0)
(-0.00230049 0 0)
(-0.00230073 0 0)
(-0.00230097 0 0)
(-0.00230118 0 0)
(-0.00230139 0 0)
(-0.00230157 0 0)
(-0.00230175 0 0)
(-0.00230191 0 0)
(-0.00230207 0 0)
(-0.00230221 0 0)
(-0.00230234 0 0)
(-0.00230246 0 0)
(-0.00230257 0 0)
(-0.00230268 0 0)
(-0.00230278 0 0)
(-0.00230287 0 0)
(-0.00230295 0 0)
(-0.00230303 0 0)
(-0.0023031 0 0)
(-0.00230317 0 0)
(-0.00230323 0 0)
(-0.00230329 0 0)
(-0.00230334 0 0)
(-0.00230339 0 0)
(-0.00230344 0 0)
(-0.00230348 0 0)
(-0.00230352 0 0)
(-0.00230356 0 0)
(-0.00230359 0 0)
(-0.00230362 0 0)
(-0.00230365 0 0)
(-0.00230367 0 0)
(-0.0023037 0 0)
(-0.00230372 0 0)
(-0.00230374 0 0)
(-0.00230376 0 0)
(-0.00230378 0 0)
(-0.00230379 0 0)
(-0.00230381 0 0)
(-0.00230382 0 0)
(-0.00230384 0 0)
(-0.00230385 0 0)
(-0.00230386 0 0)
(-0.00230387 0 0)
(-0.00230388 0 0)
(-0.00230388 0 0)
(-0.00230389 0 0)
(-0.0023039 0 0)
(-0.00230391 0 0)
(-0.00230391 0 0)
(-0.00230392 0 0)
(-0.00230392 0 0)
(-0.00230393 0 0)
(-0.00230393 0 0)
(-0.00230393 0 0)
(-0.00230394 0 0)
(-0.00230394 0 0)
(-0.00230394 0 0)
(-0.00230394 0 0)
(-0.00230395 0 0)
(-0.00230395 0 0)
(-0.00230395 0 0)
(-0.00230395 0 0)
(-0.00230395 0 0)
(-0.00230395 0 0)
(-0.00230395 0 0)
(-0.00230395 0 0)
(-0.00230395 0 0)
(-0.00230395 0 0)
(-0.00230395 0 0)
(-0.00230395 0 0)
(-0.00230395 0 0)
(-0.00230395 0 0)
(-0.00230395 0 0)
(-0.00230395 0 0)
(-0.00230395 0 0)
(-0.00230395 0 0)
(-0.00230395 0 0)
(-0.00230394 0 0)
(-0.00230394 0 0)
(-0.00230394 0 0)
(-0.00230394 0 0)
(-0.00230394 0 0)
(-0.00230393 0 0)
(-0.00230393 0 0)
(-0.00230393 0 0)
(-0.00230393 0 0)
(-0.00230392 0 0)
(-0.00230392 0 0)
(-0.00230392 0 0)
(-0.00230391 0 0)
(-0.00230391 0 0)
(-0.00230391 0 0)
(-0.00230391 0 0)
(-0.0023039 0 0)
(-0.0023039 0 0)
(-0.00230389 0 0)
(-0.00230389 0 0)
(-0.00230389 0 0)
(-0.00230388 0 0)
(-0.00230388 0 0)
(-0.00230387 0 0)
(-0.00230387 0 0)
(-0.00230387 0 0)
(-0.00230386 0 0)
(-0.00230386 0 0)
(-0.00230385 0 0)
(-0.00230385 0 0)
(-0.00230384 0 0)
(-0.00230384 0 0)
(-0.00230383 0 0)
(-0.00230383 0 0)
(-0.00230382 0 0)
(-0.00230382 0 0)
(-0.00230382 0 0)
(-0.00230381 0 0)
(-0.00230381 0 0)
(-0.0023038 0 0)
(-0.0023038 0 0)
(-0.00230379 0 0)
(-0.00230379 0 0)
(-0.00230378 0 0)
(-0.00230378 0 0)
(-0.00230377 0 0)
(-0.00230377 0 0)
(-0.00230376 0 0)
(-0.00230376 0 0)
(-0.00230375 0 0)
(-0.00230374 0 0)
(-0.00230374 0 0)
(-0.00230373 0 0)
(-0.00230373 0 0)
(-0.00230372 0 0)
(-0.00230372 0 0)
(-0.00230371 0 0)
(-0.00230371 0 0)
(-0.0023037 0 0)
(-0.0023037 0 0)
(-0.00230369 0 0)
(-0.00230369 0 0)
(-0.00230368 0 0)
(-0.00230368 0 0)
(-0.00230367 0 0)
(-0.00230367 0 0)
(-0.00230366 0 0)
(-0.00230366 0 0)
(-0.00230366 0 0)
(-0.00230365 0 0)
(-0.00230365 0 0)
(-0.00230364 0 0)
(-0.00230364 0 0)
(-0.00230363 0 0)
(-0.00230363 0 0)
(-0.00230362 0 0)
(-0.00230362 0 0)
(-0.00230361 0 0)
(-0.00230361 0 0)
(-0.00230361 0 0)
(-0.0023036 0 0)
(-0.0023036 0 0)
(-0.00230359 0 0)
(-0.00230359 0 0)
(-0.00230358 0 0)
(-0.00230358 0 0)
(-0.00230358 0 0)
(-0.00230357 0 0)
(-0.00230357 0 0)
(-0.00230356 0 0)
(-0.00230356 0 0)
(-0.00230356 0 0)
(-0.00230355 0 0)
(-0.00230355 0 0)
(-0.00230355 0 0)
(-0.00230354 0 0)
(-0.00230354 0 0)
(-0.00230354 0 0)
(-0.00230353 0 0)
(-0.00230353 0 0)
(-0.00230353 0 0)
(-0.00230352 0 0)
(-0.00230352 0 0)
(-0.00230352 0 0)
(-0.00230351 0 0)
(-0.00230351 0 0)
(-0.00230351 0 0)
(-0.00230351 0 0)
(-0.0023035 0 0)
(-0.0023035 0 0)
(-0.0023035 0 0)
(-0.0023035 0 0)
(-0.0023035 0 0)
(-0.00230349 0 0)
(-0.00230349 0 0)
(-0.00230349 0 0)
(-0.00230349 0 0)
(-0.00230349 0 0)
(-0.00230349 0 0)
(-0.00230349 0 0)
(-0.00230348 0 0)
(-0.00230349 0 0)
(-0.00230348 0 0)
(-0.00230348 0 0)
(-0.00230348 0 0)
(-0.00230348 0 0)
(-0.00230348 0 0)
(-0.00230348 0 0)
(-0.00230348 0 0)
(-0.00230348 0 0)
(-0.00230348 0 0)
(-0.00230348 0 0)
(-0.00230348 0 0)
(-0.00230348 0 0)
(-0.00230349 0 0)
(-0.00230349 0 0)
(-0.00230349 0 0)
(-0.00230349 0 0)
(-0.00230349 0 0)
(-0.00230349 0 0)
(-0.00230349 0 0)
(-0.0023035 0 0)
(-0.0023035 0 0)
(-0.0023035 0 0)
(-0.0023035 0 0)
(-0.00230351 0 0)
(-0.00230351 0 0)
(-0.00230351 0 0)
(-0.00230351 0 0)
(-0.00230351 0 0)
(-0.00230352 0 0)
(-0.00230352 0 0)
(-0.00230352 0 0)
(-0.00230353 0 0)
(-0.00230353 0 0)
(-0.00230353 0 0)
(-0.00230354 0 0)
(-0.00230354 0 0)
(-0.00230354 0 0)
(-0.00230354 0 0)
(-0.00230355 0 0)
(-0.00230355 0 0)
(-0.00230355 0 0)
(-0.00230356 0 0)
(-0.00230356 0 0)
(-0.00230356 0 0)
(-0.00230357 0 0)
(-0.00230357 0 0)
(-0.00230357 0 0)
(-0.00230357 0 0)
(-0.00230358 0 0)
(-0.00230358 0 0)
(-0.00230358 0 0)
(-0.00230358 0 0)
(-0.00230359 0 0)
(-0.00230359 0 0)
(-0.00230359 0 0)
(-0.00230359 0 0)
(-0.00230359 0 0)
(-0.0023036 0 0)
(-0.0023036 0 0)
(-0.0023036 0 0)
(-0.0023036 0 0)
(-0.0023036 0 0)
(-0.0023036 0 0)
(-0.0023036 0 0)
(-0.0023036 0 0)
(-0.0023036 0 0)
(-0.0023036 0 0)
(-0.0023036 0 0)
(-0.0023036 0 0)
(-0.0023036 0 0)
(-0.0023036 0 0)
(-0.0023036 0 0)
(-0.0023036 0 0)
(-0.0023036 0 0)
(-0.0023036 0 0)
(-0.0023036 0 0)
(-0.0023036 0 0)
(-0.00230359 0 0)
(-0.00230359 0 0)
(-0.00230359 0 0)
(-0.00230359 0 0)
(-0.00230358 0 0)
(-0.00230358 0 0)
(-0.00230358 0 0)
(-0.00230358 0 0)
(-0.00230357 0 0)
(-0.00230357 0 0)
(-0.00230357 0 0)
(-0.00230357 0 0)
(-0.00230356 0 0)
(-0.00230356 0 0)
(-0.00230356 0 0)
(-0.00230355 0 0)
(-0.00230355 0 0)
(-0.00230355 0 0)
(-0.00230355 0 0)
(-0.00230354 0 0)
(-0.00230354 0 0)
(-0.00230354 0 0)
(-0.00230353 0 0)
(-0.00230353 0 0)
(-0.00230353 0 0)
(-0.00230353 0 0)
(-0.00230352 0 0)
(-0.00230352 0 0)
(-0.00230352 0 0)
(-0.00230352 0 0)
(-0.00230351 0 0)
(-0.00230351 0 0)
(-0.00230351 0 0)
(-0.00230351 0 0)
(-0.00230351 0 0)
(-0.0023035 0 0)
(-0.0023035 0 0)
(-0.0023035 0 0)
(-0.0023035 0 0)
(-0.0023035 0 0)
(-0.0023035 0 0)
(-0.0023035 0 0)
(-0.00230349 0 0)
(-0.00230349 0 0)
(-0.00230349 0 0)
(-0.00230349 0 0)
(-0.00230349 0 0)
(-0.00230349 0 0)
(-0.00230349 0 0)
(-0.00230349 0 0)
(-0.00230349 0 0)
(-0.00230349 0 0)
(-0.00230348 0 0)
(-0.00230349 0 0)
(-0.00230349 0 0)
(-0.00230348 0 0)
(-0.00230349 0 0)
(-0.00230348 0 0)
(-0.00230349 0 0)
(-0.00230348 0 0)
(-0.00230348 0 0)
(-0.00230348 0 0)
(-0.00230348 0 0)
(-0.00230348 0 0)
(-0.00230348 0 0)
(-0.00230348 0 0)
(-0.00230348 0 0)
(-0.00230348 0 0)
(-0.00230348 0 0)
(-0.00230348 0 0)
(-0.00230348 0 0)
(-0.00230348 0 0)
(-0.00230348 0 0)
(-0.00230348 0 0)
(-0.00230348 0 0)
(-0.00230348 0 0)
(-0.00230348 0 0)
(-0.00230348 0 0)
(-0.00230348 0 0)
(-0.00230348 0 0)
(-0.00230348 0 0)
(-0.00230348 0 0)
(-0.00230348 0 0)
(-0.00230348 0 0)
(-0.00230348 0 0)
(-0.00230348 0 0)
(-0.00230348 0 0)
(-0.00230348 0 0)
(-0.00230348 0 0)
(-0.00230348 0 0)
(-0.00230348 0 0)
(-0.00230348 0 0)
(-0.00230348 0 0)
(-0.00230348 0 0)
(-0.00230348 0 0)
(-0.00230348 0 0)
(-0.00230348 0 0)
(-0.00230348 0 0)
(-0.00230348 0 0)
(-0.00230348 0 0)
(-0.00230348 0 0)
(-0.00230348 0 0)
(-0.00230348 0 0)
(-0.00230348 0 0)
(-0.00230348 0 0)
(-0.00230348 0 0)
(-0.00230348 0 0)
(-0.00230348 0 0)
(-0.00230348 0 0)
(-0.00230348 0 0)
(-0.00230348 0 0)
(-0.00230348 0 0)
(-0.00230348 0 0)
(-0.00230348 0 0)
(-0.00230348 0 0)
(-0.00230348 0 0)
(-0.00230348 0 0)
(-0.00230348 0 0)
(-0.00230348 0 0)
(-0.00230348 0 0)
(-0.00230348 0 0)
(-0.00230348 0 0)
(-0.00230348 0 0)
(-0.00230347 0 0)
(-0.00230347 0 0)
(-0.00230347 0 0)
(-0.00230347 0 0)
(-0.00230347 0 0)
(-0.00230347 0 0)
(-0.00230347 0 0)
(-0.00230346 0 0)
(-0.00230346 0 0)
(-0.00230346 0 0)
(-0.00230345 0 0)
(-0.00230345 0 0)
(-0.00230345 0 0)
(-0.00230344 0 0)
(-0.00230344 0 0)
(-0.00230344 0 0)
(-0.00230343 0 0)
(-0.00230343 0 0)
(-0.00230342 0 0)
(-0.00230342 0 0)
(-0.00230341 0 0)
(-0.00230341 0 0)
(-0.0023034 0 0)
(-0.0023034 0 0)
(-0.00230339 0 0)
(-0.00230339 0 0)
(-0.00230338 0 0)
(-0.00230338 0 0)
(-0.00230337 0 0)
(-0.00230337 0 0)
(-0.00230336 0 0)
(-0.00230336 0 0)
(-0.00230335 0 0)
(-0.00230335 0 0)
(-0.00230334 0 0)
(-0.00230334 0 0)
(-0.00230333 0 0)
(-0.00230333 0 0)
(-0.00230332 0 0)
(-0.00230332 0 0)
(-0.00230331 0 0)
(-0.00230331 0 0)
(-0.00230331 0 0)
(-0.0023033 0 0)
(-0.0023033 0 0)
(-0.0023033 0 0)
(-0.00230329 0 0)
(-0.00230329 0 0)
(-0.00230329 0 0)
(-0.00230329 0 0)
(-0.00230329 0 0)
(-0.00230328 0 0)
(-0.00230329 0 0)
(-0.00230328 0 0)
(-0.00230328 0 0)
(-0.00230329 0 0)
(-0.00230328 0 0)
(-0.00230329 0 0)
(-0.00230329 0 0)
(-0.00230329 0 0)
(-0.00230329 0 0)
(-0.00230329 0 0)
(-0.00230329 0 0)
(-0.00230329 0 0)
(-0.0023033 0 0)
(-0.0023033 0 0)
(-0.0023033 0 0)
(-0.0023033 0 0)
(-0.00230331 0 0)
(-0.00230331 0 0)
(-0.00230331 0 0)
(-0.00230331 0 0)
(-0.00230332 0 0)
(-0.00230332 0 0)
(-0.00230332 0 0)
(-0.00230332 0 0)
(-0.00230332 0 0)
(-0.00230332 0 0)
(-0.00230333 0 0)
(-0.00230333 0 0)
(-0.00230333 0 0)
(-0.00230333 0 0)
(-0.00230333 0 0)
(-0.00230333 0 0)
(-0.00230333 0 0)
(-0.00230333 0 0)
(-0.00230333 0 0)
(-0.00230333 0 0)
(-0.00230333 0 0)
(-0.00230333 0 0)
(-0.00230333 0 0)
(-0.00230332 0 0)
(-0.00230332 0 0)
(-0.00230332 0 0)
(-0.00230332 0 0)
(-0.00230332 0 0)
(-0.00230331 0 0)
(-0.00230331 0 0)
(-0.00230331 0 0)
(-0.00230331 0 0)
(-0.0023033 0 0)
(-0.0023033 0 0)
(-0.0023033 0 0)
(-0.0023033 0 0)
(-0.00230329 0 0)
(-0.00230329 0 0)
(-0.00230329 0 0)
(-0.00230329 0 0)
(-0.00230329 0 0)
(-0.00230328 0 0)
(-0.00230328 0 0)
(-0.00230328 0 0)
(-0.00230328 0 0)
(-0.00230328 0 0)
(-0.00230328 0 0)
(-0.00230328 0 0)
(-0.00230328 0 0)
(-0.00230327 0 0)
(-0.00230327 0 0)
(-0.00230328 0 0)
(-0.00230327 0 0)
(-0.00230328 0 0)
(-0.00230328 0 0)
(-0.00230328 0 0)
(-0.00230328 0 0)
(-0.00230328 0 0)
(-0.00230328 0 0)
(-0.00230328 0 0)
(-0.00230328 0 0)
(-0.00230328 0 0)
(-0.00230328 0 0)
(-0.00230329 0 0)
(-0.00230328 0 0)
(-0.00230329 0 0)
(-0.00230329 0 0)
(-0.00230329 0 0)
(-0.00230329 0 0)
(-0.00230328 0 0)
(-0.00230329 0 0)
(-0.00230328 0 0)
(-0.00230328 0 0)
(-0.00230328 0 0)
(-0.00230328 0 0)
(-0.00230328 0 0)
(-0.00230327 0 0)
(-0.00230327 0 0)
(-0.00230327 0 0)
(-0.00230326 0 0)
(-0.00230326 0 0)
(-0.00230325 0 0)
(-0.00230324 0 0)
(-0.00230324 0 0)
(-0.00230323 0 0)
(-0.00230322 0 0)
(-0.00230321 0 0)
(-0.0023032 0 0)
(-0.00230319 0 0)
(-0.00230318 0 0)
(-0.00230317 0 0)
(-0.00230315 0 0)
(-0.00230314 0 0)
(-0.00230313 0 0)
(-0.00230311 0 0)
(-0.0023031 0 0)
(-0.00230309 0 0)
(-0.00230307 0 0)
(-0.00230306 0 0)
(-0.00230304 0 0)
(-0.00230302 0 0)
(-0.00230301 0 0)
(-0.00230299 0 0)
(-0.00230298 0 0)
(-0.00230296 0 0)
(-0.00230295 0 0)
(-0.00230293 0 0)
(-0.00230291 0 0)
(-0.0023029 0 0)
(-0.00230289 0 0)
(-0.00230287 0 0)
(-0.00230286 0 0)
(-0.00230284 0 0)
(-0.00230283 0 0)
(-0.00230282 0 0)
(-0.00230281 0 0)
(-0.0023028 0 0)
(-0.00230279 0 0)
(-0.00230278 0 0)
(-0.00230277 0 0)
(-0.00230277 0 0)
(-0.00230276 0 0)
(-0.00230276 0 0)
(-0.00230275 0 0)
(-0.00230275 0 0)
(-0.00230275 0 0)
(-0.00230275 0 0)
(-0.00230275 0 0)
(-0.00230275 0 0)
(-0.00230275 0 0)
(-0.00230275 0 0)
(-0.00230276 0 0)
(-0.00230276 0 0)
(-0.00230277 0 0)
(-0.00230278 0 0)
(-0.00230278 0 0)
(-0.00230279 0 0)
(-0.0023028 0 0)
(-0.00230281 0 0)
(-0.00230282 0 0)
(-0.00230283 0 0)
(-0.00230284 0 0)
(-0.00230286 0 0)
(-0.00230287 0 0)
(-0.00230288 0 0)
(-0.00230289 0 0)
(-0.00230291 0 0)
(-0.00230292 0 0)
(-0.00230293 0 0)
(-0.00230294 0 0)
(-0.00230296 0 0)
(-0.00230297 0 0)
(-0.00230298 0 0)
(-0.00230299 0 0)
(-0.002303 0 0)
(-0.00230301 0 0)
(-0.00230303 0 0)
(-0.00230304 0 0)
(-0.00230305 0 0)
(-0.00230305 0 0)
(-0.00230306 0 0)
(-0.00230307 0 0)
(-0.00230308 0 0)
(-0.00230309 0 0)
(-0.00230309 0 0)
(-0.0023031 0 0)
(-0.0023031 0 0)
(-0.00230311 0 0)
(-0.00230311 0 0)
(-0.00230311 0 0)
(-0.00230311 0 0)
(-0.00230311 0 0)
(-0.00230311 0 0)
(-0.00230311 0 0)
(-0.00230311 0 0)
(-0.0023031 0 0)
(-0.0023031 0 0)
(-0.00230309 0 0)
(-0.00230309 0 0)
(-0.00230308 0 0)
(-0.00230307 0 0)
(-0.00230306 0 0)
(-0.00230305 0 0)
(-0.00230303 0 0)
(-0.00230302 0 0)
(-0.002303 0 0)
(-0.00230299 0 0)
(-0.00230297 0 0)
(-0.00230295 0 0)
(-0.00230293 0 0)
(-0.00230291 0 0)
(-0.00230289 0 0)
(-0.00230287 0 0)
(-0.00230285 0 0)
(-0.00230282 0 0)
(-0.0023028 0 0)
(-0.00230277 0 0)
(-0.00230275 0 0)
(-0.00230272 0 0)
(-0.00230269 0 0)
(-0.00230267 0 0)
(-0.00230264 0 0)
(-0.00230261 0 0)
(-0.00230258 0 0)
(-0.00230256 0 0)
(-0.00230253 0 0)
(-0.0023025 0 0)
(-0.00230248 0 0)
(-0.00230245 0 0)
(-0.00230243 0 0)
(-0.0023024 0 0)
(-0.00230238 0 0)
(-0.00230235 0 0)
(-0.00230233 0 0)
(-0.00230231 0 0)
(-0.00230229 0 0)
(-0.00230227 0 0)
(-0.00230225 0 0)
(-0.00230223 0 0)
(-0.00230222 0 0)
(-0.0023022 0 0)
(-0.00230219 0 0)
(-0.00230217 0 0)
(-0.00230216 0 0)
(-0.00230215 0 0)
(-0.00230215 0 0)
(-0.00230214 0 0)
(-0.00230213 0 0)
(-0.00230213 0 0)
(-0.00230212 0 0)
(-0.00230212 0 0)
(-0.00230212 0 0)
(-0.00230212 0 0)
(-0.00230212 0 0)
(-0.00230212 0 0)
(-0.00230213 0 0)
(-0.00230213 0 0)
(-0.00230214 0 0)
(-0.00230214 0 0)
(-0.00230215 0 0)
(-0.00230216 0 0)
(-0.00230217 0 0)
(-0.00230217 0 0)
(-0.00230218 0 0)
(-0.00230219 0 0)
(-0.00230219 0 0)
(-0.0023022 0 0)
(-0.0023022 0 0)
(-0.00230221 0 0)
(-0.00230221 0 0)
(-0.00230221 0 0)
(-0.00230221 0 0)
(-0.00230221 0 0)
(-0.0023022 0 0)
(-0.00230219 0 0)
(-0.00230218 0 0)
(-0.00230217 0 0)
(-0.00230215 0 0)
(-0.00230214 0 0)
(-0.00230212 0 0)
(-0.00230209 0 0)
(-0.00230207 0 0)
(-0.00230204 0 0)
(-0.00230202 0 0)
(-0.00230199 0 0)
(-0.00230196 0 0)
(-0.00230193 0 0)
(-0.0023019 0 0)
(-0.00230187 0 0)
(-0.00230185 0 0)
(-0.00230182 0 0)
(-0.00230179 0 0)
(-0.00230177 0 0)
(-0.00230175 0 0)
(-0.00230173 0 0)
(-0.00230171 0 0)
(-0.00230169 0 0)
(-0.00230168 0 0)
(-0.00230166 0 0)
(-0.00230165 0 0)
(-0.00230164 0 0)
(-0.00230163 0 0)
(-0.00230162 0 0)
(-0.00230161 0 0)
(-0.0023016 0 0)
(-0.00230158 0 0)
(-0.00230156 0 0)
(-0.00230155 0 0)
(-0.00230152 0 0)
(-0.00230149 0 0)
(-0.00230146 0 0)
(-0.00230142 0 0)
(-0.00230138 0 0)
(-0.00230133 0 0)
(-0.00230128 0 0)
(-0.00230122 0 0)
(-0.00230116 0 0)
(-0.00230109 0 0)
(-0.00230102 0 0)
(-0.00230094 0 0)
(-0.00230086 0 0)
(-0.00230079 0 0)
(-0.00230071 0 0)
(-0.00230063 0 0)
(-0.00230056 0 0)
(-0.00230049 0 0)
(-0.00230042 0 0)
(-0.00230036 0 0)
(-0.00230031 0 0)
(-0.00230027 0 0)
(-0.00230023 0 0)
(-0.00230021 0 0)
(-0.00230019 0 0)
(-0.00230018 0 0)
(-0.00230019 0 0)
(-0.00230019 0 0)
(-0.00230021 0 0)
(-0.00230023 0 0)
(-0.00230025 0 0)
(-0.00230028 0 0)
(-0.0023003 0 0)
(-0.00230032 0 0)
(-0.00230033 0 0)
(-0.00230034 0 0)
(-0.00230033 0 0)
(-0.00230031 0 0)
(-0.00230027 0 0)
(-0.00230022 0 0)
(-0.00230014 0 0)
(-0.00230004 0 0)
(-0.00229992 0 0)
(-0.00229978 0 0)
(-0.00229962 0 0)
(-0.00229944 0 0)
(-0.00229924 0 0)
(-0.00229903 0 0)
(-0.0022988 0 0)
(-0.00229856 0 0)
(-0.00229832 0 0)
(-0.00229808 0 0)
(-0.00229784 0 0)
(-0.00229762 0 0)
(-0.00229741 0 0)
(-0.00229723 0 0)
(-0.00229709 0 0)
(-0.00229701 0 0)
(-0.002297 0 0)
(-0.00229711 0 0)
(-0.00229737 0 0)
(-0.00229785 0 0)
(-0.00229865 0 0)
(-0.00229991 0 0)
(-0.00230184 0 0)
(-0.00230476 0 0)
(-0.0023091 0 0)
(-0.00231551 0 0)
(-0.00232491 0 0)
(-0.00233862 0 0)
(-0.00235846 0 0)
(-0.00238697 0 0)
(-0.00242761 0 0)
(-0.00248508 0 0)
(-0.00256552 0 0)
(-0.00267699 0 0)
(-0.00282955 0 0)
(-0.00303593 0 0)
(-0.00331078 0 0)
(-0.00367197 0 0)
(-0.00413747 0 0)
(-0.00472803 0 0)
(-0.00545977 0 0)
(-0.00634808 0 0)
(-0.00739624 0 0)
(-0.00859652 0 0)
(-0.00992473 0 0)
(-0.0112918 0 0)
(-0.0126385 0 0)
(-0.013781 0 0)
(-0.0142632 0 0)
(-0.0131185 0 0)
(-0.0104013 0 0)
)
;

boundaryField
{
    fixedWall
    {
        type            fixedValue;
        value           uniform (0 0 0);
    }
    outlet
    {
        type            pressureInletOutletVelocity;
        value           uniform (-0.0104013 0 0);
    }
    defaultFaces
    {
        type            empty;
    }
}


// ************************************************************************* //
