/*--------------------------------*- C++ -*----------------------------------*\
| =========                 |                                                 |
| \\      /  F ield         | OpenFOAM: The Open Source CFD Toolbox           |
|  \\    /   O peration     | Version:  2406                                  |
|   \\  /    A nd           | Website:  www.openfoam.com                      |
|    \\/     M anipulation  |                                                 |
\*---------------------------------------------------------------------------*/
FoamFile
{
    version     2.0;
    format      ascii;
    arch        "LSB;label=32;scalar=64";
    class       volScalarField;
    location    "2.2";
    object      CO2;
}
// * * * * * * * * * * * * * * * * * * * * * * * * * * * * * * * * * * * * * //

dimensions      [0 0 0 0 0 0 0];

internalField   nonuniform List<scalar> 
1000
(
0.0709257
0.0709257
0.0709257
0.0709257
0.0709257
0.0709257
0.0709257
0.0709257
0.0709257
0.0709257
0.0709257
0.0709257
0.0709257
0.0709258
0.0709258
0.0709258
0.0709258
0.0709258
0.0709258
0.0709258
0.0709259
0.0709259
0.0709259
0.0709259
0.0709259
0.0709259
0.0709259
0.070926
0.070926
0.070926
0.070926
0.070926
0.070926
0.070926
0.070926
0.0709261
0.0709261
0.0709261
0.0709261
0.0709261
0.0709261
0.0709261
0.0709261
0.0709261
0.0709261
0.0709261
0.0709261
0.0709261
0.0709261
0.0709261
0.0709261
0.0709261
0.0709261
0.0709261
0.0709261
0.0709261
0.0709261
0.0709261
0.0709261
0.0709261
0.0709261
0.0709261
0.0709261
0.0709261
0.0709261
0.0709261
0.0709261
0.0709261
0.0709261
0.0709261
0.0709261
0.0709261
0.0709261
0.0709261
0.0709261
0.0709261
0.0709261
0.0709261
0.0709261
0.0709261
0.0709261
0.0709261
0.0709261
0.0709261
0.0709261
0.0709261
0.070926
0.070926
0.070926
0.070926
0.070926
0.070926
0.070926
0.070926
0.070926
0.070926
0.070926
0.070926
0.070926
0.070926
0.070926
0.070926
0.070926
0.070926
0.070926
0.070926
0.070926
0.070926
0.070926
0.070926
0.070926
0.070926
0.0709259
0.0709259
0.0709259
0.0709259
0.0709259
0.0709259
0.0709259
0.0709259
0.0709259
0.0709259
0.0709259
0.0709259
0.0709259
0.0709259
0.0709259
0.0709259
0.0709259
0.0709259
0.0709259
0.0709259
0.0709259
0.0709259
0.0709258
0.0709258
0.0709258
0.0709258
0.0709258
0.0709258
0.0709258
0.0709258
0.0709258
0.0709258
0.0709258
0.0709258
0.0709258
0.0709258
0.0709258
0.0709258
0.0709258
0.0709258
0.0709257
0.0709257
0.0709257
0.0709257
0.0709257
0.0709257
0.0709257
0.0709257
0.0709257
0.0709257
0.0709257
0.0709257
0.0709257
0.0709257
0.0709257
0.0709256
0.0709256
0.0709256
0.0709256
0.0709256
0.0709256
0.0709256
0.0709256
0.0709256
0.0709256
0.0709256
0.0709256
0.0709256
0.0709255
0.0709255
0.0709255
0.0709255
0.0709255
0.0709255
0.0709255
0.0709255
0.0709255
0.0709255
0.0709255
0.0709254
0.0709254
0.0709254
0.0709254
0.0709254
0.0709254
0.0709254
0.0709254
0.0709254
0.0709254
0.0709253
0.0709253
0.0709253
0.0709253
0.0709253
0.0709253
0.0709253
0.0709253
0.0709252
0.0709252
0.0709252
0.0709252
0.0709252
0.0709252
0.0709252
0.0709251
0.0709251
0.0709251
0.0709251
0.0709251
0.0709251
0.0709251
0.070925
0.070925
0.070925
0.070925
0.070925
0.070925
0.0709249
0.0709249
0.0709249
0.0709249
0.0709249
0.0709248
0.0709248
0.0709248
0.0709248
0.0709248
0.0709247
0.0709247
0.0709247
0.0709247
0.0709246
0.0709246
0.0709246
0.0709246
0.0709245
0.0709245
0.0709245
0.0709245
0.0709244
0.0709244
0.0709244
0.0709243
0.0709243
0.0709243
0.0709243
0.0709242
0.0709242
0.0709242
0.0709241
0.0709241
0.070924
0.070924
0.070924
0.0709239
0.0709239
0.0709238
0.0709238
0.0709237
0.0709237
0.0709236
0.0709236
0.0709235
0.0709235
0.0709234
0.0709234
0.0709233
0.0709232
0.0709232
0.0709231
0.070923
0.070923
0.0709229
0.0709228
0.0709227
0.0709227
0.0709226
0.0709225
0.0709224
0.0709223
0.0709222
0.0709221
0.070922
0.0709219
0.0709217
0.0709216
0.0709215
0.0709213
0.0709212
0.070921
0.0709209
0.0709207
0.0709205
0.0709203
0.0709201
0.0709199
0.0709196
0.0709194
0.0709191
0.0709188
0.0709185
0.0709182
0.0709178
0.0709174
0.070917
0.0709165
0.070916
0.0709154
0.0709148
0.0709141
0.0709134
0.0709125
0.0709115
0.0709104
0.0709091
0.0709076
0.0709058
0.0709037
0.0709012
0.0708981
0.0708943
0.0708895
0.0708833
0.0708751
0.0708634
0.070846
0.0708175
0.0707654
0.0706534
0.07036
0.0694307
0.0660225
0.0506718
0.024652
0.0119438
0.00583335
0.00287021
0.00141983
0.000704856
0.000350728
0.000174782
8.71895e-05
4.35243e-05
2.17375e-05
1.08604e-05
5.42748e-06
2.71297e-06
1.35633e-06
6.78195e-07
3.39162e-07
1.69641e-07
8.48798e-08
4.24859e-08
2.1284e-08
1.06939e-08
5.37336e-09
2.74152e-09
1.42333e-09
7.63994e-10
5.3142e-10
3.46117e-10
2.06936e-10
1.62174e-10
1.28012e-10
1.09941e-10
1.02979e-10
9.63414e-11
9.31665e-11
9.13816e-11
9.06612e-11
8.97713e-11
8.94965e-11
8.92228e-11
8.91261e-11
8.90625e-11
8.90132e-11
8.89856e-11
8.89686e-11
8.89621e-11
8.89579e-11
8.89542e-11
8.89529e-11
8.89522e-11
8.89518e-11
8.89516e-11
8.89516e-11
8.89516e-11
8.89517e-11
8.89518e-11
8.8952e-11
8.89521e-11
8.89523e-11
8.89524e-11
8.89525e-11
8.89527e-11
8.89529e-11
8.8953e-11
8.89532e-11
8.89534e-11
8.89535e-11
8.89536e-11
8.89538e-11
8.89539e-11
8.89541e-11
8.89543e-11
8.89544e-11
8.89546e-11
8.89547e-11
8.89549e-11
8.89551e-11
8.89552e-11
8.89554e-11
8.89555e-11
8.89557e-11
8.89558e-11
8.8956e-11
8.89561e-11
8.89563e-11
8.89564e-11
8.89566e-11
8.89568e-11
8.8957e-11
8.89571e-11
8.89572e-11
8.89574e-11
8.89575e-11
8.89577e-11
8.89579e-11
8.8958e-11
8.89582e-11
8.89583e-11
8.89585e-11
8.89586e-11
8.89588e-11
8.89589e-11
8.89591e-11
8.89593e-11
8.89594e-11
8.89596e-11
8.89597e-11
8.89599e-11
8.896e-11
8.89602e-11
8.89604e-11
8.89605e-11
8.89606e-11
8.89608e-11
8.89609e-11
8.89611e-11
8.89612e-11
8.89614e-11
8.89615e-11
8.89617e-11
8.89619e-11
8.8962e-11
8.89622e-11
8.89623e-11
8.89624e-11
8.89626e-11
8.89628e-11
8.89629e-11
8.89631e-11
8.89633e-11
8.89635e-11
8.89636e-11
8.89638e-11
8.8964e-11
8.89641e-11
8.89642e-11
8.89644e-11
8.89645e-11
8.89647e-11
8.89648e-11
8.8965e-11
8.89652e-11
8.89653e-11
8.89654e-11
8.89656e-11
8.89657e-11
8.89659e-11
8.8966e-11
8.89662e-11
8.89664e-11
8.89666e-11
8.89667e-11
8.89669e-11
8.89671e-11
8.89672e-11
8.89673e-11
8.89675e-11
8.89676e-11
8.89678e-11
8.89679e-11
8.89681e-11
8.89683e-11
8.89684e-11
8.89686e-11
8.89688e-11
8.89689e-11
8.8969e-11
8.89692e-11
8.89693e-11
8.89695e-11
8.89697e-11
8.89698e-11
8.897e-11
8.89701e-11
8.89703e-11
8.89705e-11
8.89706e-11
8.89708e-11
8.89709e-11
8.89711e-11
8.89712e-11
8.89714e-11
8.89717e-11
8.89718e-11
8.8972e-11
8.89721e-11
8.89722e-11
8.89724e-11
8.89726e-11
8.89727e-11
8.89729e-11
8.8973e-11
8.89732e-11
8.89733e-11
8.89735e-11
8.89737e-11
8.89739e-11
8.8974e-11
8.89742e-11
8.89743e-11
8.89745e-11
8.89746e-11
8.89748e-11
8.8975e-11
8.89751e-11
8.89754e-11
8.89755e-11
8.89756e-11
8.89758e-11
8.8976e-11
8.89761e-11
8.89763e-11
8.89764e-11
8.89766e-11
8.89768e-11
8.89769e-11
8.89771e-11
8.89772e-11
8.89775e-11
8.89776e-11
8.89778e-11
8.89779e-11
8.8978e-11
8.89783e-11
8.89784e-11
8.89786e-11
8.89787e-11
8.89789e-11
8.89791e-11
8.89792e-11
8.89794e-11
8.89795e-11
8.89796e-11
8.89798e-11
8.898e-11
8.89802e-11
8.89803e-11
8.89805e-11
8.89807e-11
8.89809e-11
8.89811e-11
8.89812e-11
8.89814e-11
8.89815e-11
8.89817e-11
8.89819e-11
8.8982e-11
8.89822e-11
8.89824e-11
8.89826e-11
8.89828e-11
8.8983e-11
8.89831e-11
8.89833e-11
8.89835e-11
8.89836e-11
8.89838e-11
8.89839e-11
8.89841e-11
8.89842e-11
8.89844e-11
8.89846e-11
8.89848e-11
8.8985e-11
8.89851e-11
8.89853e-11
8.89855e-11
8.89856e-11
8.89858e-11
8.89859e-11
8.89862e-11
8.89863e-11
8.89865e-11
8.89866e-11
8.89868e-11
8.8987e-11
8.89871e-11
8.89873e-11
8.89874e-11
8.89876e-11
8.89878e-11
8.8988e-11
8.89881e-11
8.89883e-11
8.89885e-11
8.89887e-11
8.89888e-11
8.8989e-11
8.89892e-11
8.89894e-11
8.89895e-11
8.89898e-11
8.89899e-11
8.89901e-11
8.89903e-11
8.89905e-11
8.89907e-11
8.89908e-11
8.8991e-11
8.89911e-11
8.89913e-11
8.89915e-11
8.89916e-11
8.89918e-11
8.8992e-11
8.89922e-11
8.89923e-11
8.89925e-11
8.89926e-11
8.89928e-11
8.8993e-11
8.89932e-11
8.89933e-11
8.89935e-11
8.89937e-11
8.89939e-11
8.89941e-11
8.89943e-11
8.89944e-11
8.89947e-11
8.89948e-11
8.8995e-11
8.89951e-11
8.89953e-11
8.89955e-11
8.89956e-11
8.89958e-11
8.8996e-11
8.89962e-11
8.89963e-11
8.89965e-11
8.89967e-11
8.89969e-11
8.8997e-11
8.89972e-11
8.89974e-11
8.89976e-11
8.89977e-11
8.89979e-11
8.89981e-11
8.89983e-11
8.89984e-11
8.89986e-11
8.89988e-11
8.8999e-11
8.89992e-11
8.89993e-11
8.89994e-11
8.89997e-11
8.89998e-11
8.90001e-11
8.90003e-11
8.90004e-11
8.90006e-11
8.90008e-11
8.9001e-11
8.90011e-11
8.90013e-11
8.90015e-11
8.90016e-11
8.90018e-11
8.9002e-11
8.90022e-11
8.90024e-11
8.90025e-11
8.90027e-11
8.90029e-11
8.90031e-11
8.90033e-11
8.90035e-11
8.90037e-11
8.90038e-11
8.9004e-11
8.90041e-11
8.90043e-11
8.90045e-11
8.90046e-11
8.90048e-11
8.9005e-11
8.90052e-11
8.90054e-11
8.90055e-11
8.90057e-11
8.90059e-11
8.90061e-11
8.90063e-11
8.90065e-11
8.90067e-11
8.90069e-11
8.9007e-11
8.90072e-11
8.90073e-11
8.90075e-11
8.90077e-11
8.90079e-11
8.90081e-11
8.90082e-11
8.90084e-11
8.90086e-11
8.90088e-11
8.9009e-11
8.90091e-11
8.90094e-11
8.90095e-11
8.90097e-11
8.90099e-11
8.90101e-11
8.90102e-11
8.90104e-11
8.90106e-11
8.90108e-11
8.90109e-11
8.90111e-11
8.90113e-11
8.90115e-11
8.90116e-11
8.90118e-11
8.9012e-11
8.90122e-11
8.90124e-11
8.90126e-11
8.90128e-11
8.9013e-11
8.90131e-11
8.90133e-11
8.90134e-11
8.90137e-11
8.90138e-11
8.9014e-11
8.90142e-11
8.90144e-11
8.90145e-11
8.90147e-11
8.90149e-11
8.90151e-11
8.90153e-11
8.90154e-11
8.90156e-11
8.90157e-11
8.9016e-11
8.90162e-11
8.90164e-11
8.90166e-11
8.90168e-11
8.9017e-11
8.90171e-11
8.90173e-11
8.90175e-11
8.90177e-11
8.90179e-11
8.90181e-11
8.90183e-11
8.90184e-11
8.90186e-11
8.90187e-11
8.9019e-11
8.90191e-11
8.90194e-11
8.90195e-11
8.90197e-11
8.90199e-11
8.902e-11
8.90202e-11
8.90204e-11
8.90205e-11
8.90207e-11
8.90209e-11
8.90211e-11
8.90214e-11
8.90215e-11
8.90218e-11
8.90219e-11
8.90222e-11
8.90224e-11
8.90225e-11
8.90227e-11
8.90229e-11
8.9023e-11
8.90232e-11
8.90234e-11
8.90236e-11
8.90237e-11
8.90239e-11
8.90241e-11
8.90243e-11
8.90245e-11
8.90247e-11
8.90248e-11
8.9025e-11
8.90252e-11
8.90254e-11
8.90255e-11
8.90257e-11
8.90259e-11
8.90261e-11
8.90262e-11
8.90265e-11
8.90266e-11
8.90268e-11
8.9027e-11
8.90271e-11
8.90273e-11
8.90276e-11
8.90277e-11
8.9028e-11
8.90282e-11
8.90283e-11
8.90286e-11
8.90287e-11
8.90289e-11
8.90291e-11
8.90293e-11
8.90295e-11
8.90298e-11
8.90299e-11
8.90301e-11
8.90302e-11
8.90305e-11
8.90307e-11
8.90309e-11
8.90311e-11
8.90313e-11
8.90314e-11
8.90316e-11
8.90318e-11
8.9032e-11
8.90322e-11
8.90323e-11
8.90325e-11
8.90327e-11
8.90329e-11
8.90331e-11
8.90333e-11
8.90334e-11
8.90336e-11
8.90338e-11
8.9034e-11
8.90341e-11
8.90343e-11
8.90345e-11
8.90347e-11
8.90349e-11
8.9035e-11
8.90352e-11
8.90354e-11
8.90355e-11
8.90358e-11
8.90361e-11
8.90363e-11
8.90365e-11
8.90367e-11
8.90369e-11
8.9037e-11
8.90373e-11
8.90374e-11
8.90376e-11
8.90378e-11
8.90379e-11
8.90381e-11
8.90383e-11
8.90386e-11
8.90387e-11
8.90389e-11
8.90391e-11
8.90393e-11
8.90394e-11
8.90396e-11
8.90399e-11
8.90401e-11
8.90403e-11
8.90405e-11
8.90406e-11
8.90409e-11
8.90411e-11
8.90413e-11
8.90415e-11
8.90416e-11
8.90418e-11
8.90421e-11
8.90422e-11
8.90424e-11
8.90426e-11
8.90428e-11
8.9043e-11
8.90431e-11
8.90433e-11
8.90436e-11
8.90437e-11
8.90439e-11
8.90441e-11
8.90443e-11
8.90445e-11
8.90447e-11
8.90448e-11
8.90451e-11
8.90453e-11
8.90455e-11
8.90457e-11
8.90458e-11
8.90461e-11
8.90462e-11
8.90464e-11
8.90466e-11
8.90468e-11
8.9047e-11
8.90472e-11
8.90474e-11
8.90476e-11
8.90478e-11
8.9048e-11
8.90482e-11
8.90484e-11
8.90485e-11
8.90488e-11
8.90489e-11
8.90491e-11
8.90494e-11
8.90496e-11
8.90498e-11
8.905e-11
8.90501e-11
8.90503e-11
8.90505e-11
8.90507e-11
8.90509e-11
8.90511e-11
8.90513e-11
8.90515e-11
8.90517e-11
8.90519e-11
8.90521e-11
8.90523e-11
8.90525e-11
8.90527e-11
8.90529e-11
8.90531e-11
8.90533e-11
8.90534e-11
8.90536e-11
8.90539e-11
8.9054e-11
8.90543e-11
8.90545e-11
8.90548e-11
8.90549e-11
8.90552e-11
8.90553e-11
8.90555e-11
8.90556e-11
8.90558e-11
8.90561e-11
8.90563e-11
8.90565e-11
8.90567e-11
8.90568e-11
)
;

boundaryField
{
    fixedWall
    {
        type            zeroGradient;
    }
    outlet
    {
        type            inletOutlet;
        inletValue      uniform 0;
        value           uniform 8.90568e-11;
    }
    defaultFaces
    {
        type            empty;
    }
}


// ************************************************************************* //
