/*--------------------------------*- C++ -*----------------------------------*\
| =========                 |                                                 |
| \\      /  F ield         | OpenFOAM: The Open Source CFD Toolbox           |
|  \\    /   O peration     | Version:  2406                                  |
|   \\  /    A nd           | Website:  www.openfoam.com                      |
|    \\/     M anipulation  |                                                 |
\*---------------------------------------------------------------------------*/
FoamFile
{
    version     2.0;
    format      ascii;
    arch        "LSB;label=32;scalar=64";
    class       volScalarField;
    location    "2.2";
    object      O2;
}
// * * * * * * * * * * * * * * * * * * * * * * * * * * * * * * * * * * * * * //

dimensions      [0 0 0 0 0 0 0];

internalField   nonuniform List<scalar> 
1000
(
1.71577e-06
1.71356e-06
1.70975e-06
1.70456e-06
1.69812e-06
1.69046e-06
1.6816e-06
1.67155e-06
1.66031e-06
1.64787e-06
1.63425e-06
1.61946e-06
1.60352e-06
1.58648e-06
1.5684e-06
1.54934e-06
1.5294e-06
1.50867e-06
1.48727e-06
1.46532e-06
1.44296e-06
1.42034e-06
1.39758e-06
1.37485e-06
1.35226e-06
1.32997e-06
1.30809e-06
1.28673e-06
1.26602e-06
1.24602e-06
1.22683e-06
1.20851e-06
1.19112e-06
1.17469e-06
1.15925e-06
1.14483e-06
1.13142e-06
1.11904e-06
1.10766e-06
1.09729e-06
1.08788e-06
1.07943e-06
1.07189e-06
1.06524e-06
1.05943e-06
1.05443e-06
1.05019e-06
1.04669e-06
1.04387e-06
1.04169e-06
1.04013e-06
1.03913e-06
1.03866e-06
1.03868e-06
1.03915e-06
1.04004e-06
1.04133e-06
1.04297e-06
1.04493e-06
1.0472e-06
1.04975e-06
1.05254e-06
1.05556e-06
1.05879e-06
1.06221e-06
1.0658e-06
1.06954e-06
1.07342e-06
1.07743e-06
1.08155e-06
1.08577e-06
1.09009e-06
1.09448e-06
1.09895e-06
1.10349e-06
1.1081e-06
1.11275e-06
1.11746e-06
1.12222e-06
1.127e-06
1.13179e-06
1.13668e-06
1.14161e-06
1.14658e-06
1.15158e-06
1.15661e-06
1.16167e-06
1.16676e-06
1.17188e-06
1.17704e-06
1.18223e-06
1.18745e-06
1.19271e-06
1.198e-06
1.20332e-06
1.20868e-06
1.21408e-06
1.21951e-06
1.22498e-06
1.23049e-06
1.23604e-06
1.24162e-06
1.24725e-06
1.25292e-06
1.25863e-06
1.26439e-06
1.27018e-06
1.27603e-06
1.28191e-06
1.28784e-06
1.29382e-06
1.29985e-06
1.30592e-06
1.31204e-06
1.3182e-06
1.32442e-06
1.33069e-06
1.337e-06
1.34337e-06
1.34979e-06
1.35626e-06
1.36279e-06
1.36937e-06
1.37601e-06
1.3827e-06
1.38945e-06
1.39626e-06
1.40313e-06
1.41006e-06
1.41705e-06
1.4241e-06
1.43122e-06
1.4384e-06
1.44555e-06
1.45288e-06
1.46028e-06
1.46775e-06
1.4753e-06
1.48292e-06
1.49062e-06
1.49839e-06
1.50624e-06
1.51418e-06
1.5222e-06
1.5303e-06
1.53849e-06
1.54676e-06
1.55512e-06
1.56358e-06
1.57212e-06
1.58076e-06
1.5895e-06
1.59833e-06
1.60726e-06
1.61628e-06
1.62541e-06
1.63465e-06
1.64398e-06
1.65342e-06
1.66297e-06
1.67263e-06
1.6824e-06
1.69225e-06
1.70211e-06
1.71224e-06
1.72248e-06
1.73284e-06
1.74331e-06
1.75391e-06
1.76464e-06
1.77549e-06
1.78646e-06
1.79757e-06
1.8088e-06
1.82018e-06
1.83169e-06
1.84335e-06
1.85514e-06
1.86709e-06
1.87919e-06
1.89144e-06
1.90385e-06
1.91642e-06
1.92916e-06
1.94207e-06
1.95515e-06
1.96841e-06
1.98185e-06
1.99547e-06
2.00929e-06
2.02329e-06
2.0375e-06
2.05191e-06
2.06652e-06
2.08134e-06
2.09638e-06
2.11164e-06
2.12712e-06
2.14283e-06
2.15878e-06
2.17496e-06
2.19138e-06
2.20805e-06
2.22497e-06
2.24215e-06
2.2596e-06
2.27731e-06
2.2953e-06
2.31356e-06
2.33212e-06
2.35097e-06
2.37012e-06
2.38958e-06
2.40935e-06
2.42945e-06
2.44988e-06
2.47065e-06
2.49177e-06
2.51325e-06
2.53509e-06
2.55732e-06
2.57993e-06
2.60294e-06
2.62635e-06
2.65019e-06
2.67446e-06
2.69918e-06
2.72435e-06
2.74999e-06
2.77611e-06
2.80272e-06
2.82984e-06
2.85749e-06
2.88567e-06
2.9144e-06
2.9437e-06
2.97358e-06
3.00406e-06
3.03515e-06
3.06687e-06
3.09924e-06
3.13228e-06
3.166e-06
3.20043e-06
3.23558e-06
3.27147e-06
3.30813e-06
3.34558e-06
3.38385e-06
3.42295e-06
3.46291e-06
3.50377e-06
3.54557e-06
3.58835e-06
3.63218e-06
3.67708e-06
3.72312e-06
3.77033e-06
3.81877e-06
3.86849e-06
3.91955e-06
3.97201e-06
4.02593e-06
4.08136e-06
4.13839e-06
4.19707e-06
4.25747e-06
4.31966e-06
4.38372e-06
4.44972e-06
4.51773e-06
4.58783e-06
4.6601e-06
4.73462e-06
4.81149e-06
4.89079e-06
4.97263e-06
5.05713e-06
5.1444e-06
5.23459e-06
5.32788e-06
5.42448e-06
5.52338e-06
5.6259e-06
5.73361e-06
5.84526e-06
5.96121e-06
6.08176e-06
6.20725e-06
6.338e-06
6.47435e-06
6.61664e-06
6.76525e-06
6.92059e-06
7.08189e-06
7.24978e-06
7.42824e-06
7.61535e-06
7.81176e-06
8.01812e-06
8.23518e-06
8.4638e-06
8.70492e-06
8.95959e-06
9.22901e-06
9.51452e-06
9.81768e-06
1.01402e-05
1.04842e-05
1.08519e-05
1.12459e-05
1.16689e-05
1.21241e-05
1.26149e-05
1.31453e-05
1.37199e-05
1.43446e-05
1.50263e-05
1.57736e-05
1.65883e-05
1.74861e-05
1.8482e-05
1.96092e-05
2.08764e-05
2.23129e-05
2.39543e-05
2.5845e-05
2.80415e-05
3.06173e-05
3.36704e-05
3.73348e-05
4.17962e-05
4.73173e-05
5.42801e-05
6.3277e-05
7.53086e-05
9.22072e-05
0.000117555
0.000158941
0.000234698
0.000397564
0.000824353
0.00217568
0.00713166
0.0294541
0.067291
0.0857708
0.0946564
0.0989653
0.101074
0.102114
0.102629
0.102885
0.103012
0.103076
0.103107
0.103123
0.103131
0.103135
0.103137
0.103138
0.103139
0.103139
0.103139
0.103139
0.103139
0.103139
0.103139
0.103139
0.103139
0.103139
0.103139
0.103139
0.103139
0.103139
0.103139
0.103139
0.103139
0.103139
0.103139
0.103139
0.103139
0.103139
0.103139
0.103139
0.103139
0.103139
0.103139
0.103139
0.103139
0.103139
0.103139
0.103139
0.103139
0.103139
0.103139
0.103139
0.103139
0.103139
0.103139
0.103139
0.103139
0.103139
0.103139
0.103139
0.103139
0.103139
0.103139
0.103139
0.103139
0.103139
0.103139
0.103139
0.103139
0.103139
0.103139
0.103139
0.103139
0.103139
0.103139
0.103139
0.103139
0.103139
0.103139
0.103139
0.103139
0.103139
0.103139
0.103139
0.103139
0.103139
0.103139
0.103139
0.103139
0.103139
0.103139
0.103139
0.103139
0.103139
0.103139
0.103139
0.103139
0.103139
0.103139
0.103139
0.103139
0.103139
0.103139
0.103139
0.103139
0.103139
0.103139
0.103139
0.103139
0.103139
0.103139
0.103139
0.103139
0.103139
0.103139
0.103139
0.103139
0.103139
0.103139
0.103139
0.103139
0.103139
0.103139
0.103139
0.103139
0.103139
0.103139
0.103139
0.103139
0.103139
0.103139
0.103139
0.103139
0.103139
0.103139
0.103139
0.103139
0.103139
0.103139
0.103139
0.103139
0.103139
0.103139
0.103139
0.103139
0.103139
0.103139
0.103139
0.103139
0.103139
0.103139
0.103139
0.103139
0.103139
0.103139
0.103139
0.103139
0.103139
0.103139
0.103139
0.103139
0.103139
0.103139
0.103139
0.103139
0.103139
0.103139
0.103139
0.103139
0.103139
0.103139
0.103139
0.103139
0.103139
0.103139
0.103139
0.103139
0.103139
0.103139
0.103139
0.103139
0.103139
0.103139
0.103139
0.103139
0.103139
0.103139
0.103139
0.103139
0.103139
0.103139
0.103139
0.103139
0.103139
0.103139
0.103139
0.103139
0.103139
0.103139
0.103139
0.103139
0.103139
0.103139
0.103139
0.103139
0.103139
0.103139
0.103139
0.103139
0.103139
0.103139
0.103139
0.103139
0.103139
0.103139
0.103139
0.103139
0.103139
0.103139
0.103139
0.103139
0.103139
0.103139
0.103139
0.103139
0.103139
0.103139
0.103139
0.103139
0.103139
0.103139
0.103139
0.103139
0.103139
0.103139
0.103139
0.103139
0.103139
0.103139
0.103139
0.103139
0.103139
0.103139
0.103139
0.103139
0.103139
0.103139
0.103139
0.103139
0.103139
0.103139
0.103139
0.103139
0.103139
0.103139
0.103139
0.103139
0.103139
0.103139
0.103139
0.103139
0.103139
0.103139
0.103139
0.103139
0.103139
0.103139
0.103139
0.103139
0.103139
0.103139
0.103139
0.103139
0.103139
0.103139
0.103139
0.103139
0.103139
0.103139
0.103139
0.103139
0.103139
0.103139
0.103139
0.103139
0.103139
0.103139
0.103139
0.103139
0.103139
0.103139
0.103139
0.103139
0.103139
0.103139
0.103139
0.103139
0.103139
0.103139
0.103139
0.103139
0.103139
0.103139
0.103139
0.103139
0.103139
0.103139
0.103139
0.103139
0.103139
0.103139
0.103139
0.103139
0.103139
0.103139
0.103139
0.103139
0.103139
0.103139
0.103139
0.103139
0.103139
0.103139
0.103139
0.103139
0.103139
0.103139
0.103139
0.103139
0.103139
0.103139
0.103139
0.103139
0.103139
0.103139
0.103139
0.103139
0.103139
0.103139
0.103139
0.103139
0.103139
0.103139
0.103139
0.103139
0.103139
0.103139
0.103139
0.103139
0.103139
0.103139
0.103139
0.103139
0.103139
0.103139
0.103139
0.103139
0.103139
0.103139
0.103139
0.103139
0.103139
0.103139
0.103139
0.103139
0.103139
0.103139
0.103139
0.103139
0.103139
0.103139
0.103139
0.103139
0.103139
0.103139
0.103139
0.103139
0.103139
0.103139
0.103139
0.103139
0.103139
0.103139
0.103139
0.103139
0.103139
0.103139
0.103139
0.103139
0.103139
0.103139
0.103139
0.103139
0.103139
0.103139
0.103139
0.103139
0.103139
0.103139
0.103139
0.103139
0.103139
0.103139
0.103139
0.103139
0.103139
0.103139
0.103139
0.103139
0.103139
0.103139
0.103139
0.103139
0.103139
0.103139
0.103139
0.103139
0.103139
0.103139
0.103139
0.103139
0.103139
0.103139
0.103139
0.103139
0.103139
0.103139
0.103139
0.103139
0.103139
0.103139
0.103139
0.103139
0.103139
0.103139
0.103139
0.103139
0.103139
0.103139
0.103139
0.103139
0.103139
0.103139
0.103139
0.103139
0.103139
0.103139
0.103139
0.103139
0.103139
0.103139
0.103139
0.103139
0.103139
0.103139
0.103139
0.103139
0.103139
0.103139
0.103139
0.103139
0.103139
0.103139
0.103139
0.103139
0.103139
0.103139
0.103139
0.103139
0.103139
0.103139
0.103139
0.103139
0.103139
0.103139
0.103139
0.103139
0.103139
0.103139
0.103139
0.103139
0.103139
0.103139
0.103139
0.103139
0.103139
0.103139
0.103139
0.103139
0.103139
0.103139
0.103139
0.103139
0.103139
0.103139
0.103139
0.103139
0.103139
0.103139
0.103139
0.103139
0.103139
0.103139
0.103139
0.103139
0.103139
0.103139
0.103139
0.103139
0.103139
0.103139
0.103139
0.103139
0.103139
0.103139
0.103139
0.103139
0.103139
0.103139
0.103139
0.103139
0.103139
0.103139
0.103139
0.103139
0.103139
0.103139
0.103139
0.103139
0.103139
0.103139
0.103139
0.103139
0.103139
0.103139
0.103139
0.103139
0.103139
0.103139
0.103139
0.103139
0.103139
0.103139
0.103139
0.103139
0.103139
0.103139
0.103139
0.103139
0.103139
0.103139
0.103139
0.103139
0.103139
0.103139
0.103139
0.103139
0.103139
0.103139
0.103139
0.103139
0.103139
0.103139
0.103139
0.103139
0.103139
0.103139
0.103139
0.103139
0.103139
0.103139
0.103139
0.103139
0.103139
0.103139
0.103139
0.103139
0.103139
0.103139
0.103139
0.103139
0.103139
0.103139
0.103139
0.103139
0.103139
0.103139
0.103139
0.103139
0.103139
0.103139
0.103139
0.103139
0.103139
0.103139
0.103139
0.103139
0.103139
0.103139
0.103139
0.103139
0.103139
0.103139
0.103139
0.103139
0.103139
0.103139
0.103139
0.103139
0.103139
0.103139
0.103139
0.103139
0.103139
0.103139
0.103139
0.103139
0.103139
0.103139
0.103139
0.103139
0.103139
0.103139
0.103139
0.103139
0.103139
0.103139
0.103139
0.103139
0.103139
0.103139
0.103139
0.103139
0.103139
0.103139
0.103139
0.103139
0.103139
0.103139
0.103139
0.103139
0.103139
0.103139
0.103139
0.103139
0.103139
0.103139
0.103139
0.103139
0.103139
0.103139
0.103139
0.103139
0.103139
0.103139
)
;

boundaryField
{
    fixedWall
    {
        type            zeroGradient;
    }
    outlet
    {
        type            inletOutlet;
        inletValue      uniform 0;
        value           uniform 0.103139;
    }
    defaultFaces
    {
        type            empty;
    }
}


// ************************************************************************* //
