/*--------------------------------*- C++ -*----------------------------------*\
| =========                 |                                                 |
| \\      /  F ield         | OpenFOAM: The Open Source CFD Toolbox           |
|  \\    /   O peration     | Version:  2406                                  |
|   \\  /    A nd           | Website:  www.openfoam.com                      |
|    \\/     M anipulation  |                                                 |
\*---------------------------------------------------------------------------*/
FoamFile
{
    version     2.0;
    format      ascii;
    arch        "LSB;label=32;scalar=64";
    class       surfaceScalarField;
    location    "2.2";
    object      phi;
}
// * * * * * * * * * * * * * * * * * * * * * * * * * * * * * * * * * * * * * //

dimensions      [1 0 -1 0 0 0 0];

oriented        oriented;

internalField   nonuniform List<scalar> 
999
(
-1.94544e-07
-5.49916e-07
-9.61268e-07
-1.38938e-06
-1.81753e-06
-2.23808e-06
-2.64745e-06
-3.04406e-06
-3.42731e-06
-3.7971e-06
-4.15362e-06
-4.49716e-06
-4.82811e-06
-5.14685e-06
-5.45378e-06
-5.74927e-06
-6.0337e-06
-6.3074e-06
-6.5707e-06
-6.82391e-06
-7.06732e-06
-7.30121e-06
-7.52584e-06
-7.74145e-06
-7.94829e-06
-8.14659e-06
-8.33657e-06
-8.51844e-06
-8.69242e-06
-8.85871e-06
-9.01751e-06
-9.16903e-06
-9.31346e-06
-9.451e-06
-9.58184e-06
-9.70617e-06
-9.82419e-06
-9.93608e-06
-1.0042e-05
-1.01423e-05
-1.02369e-05
-1.03262e-05
-1.04103e-05
-1.04895e-05
-1.05638e-05
-1.06336e-05
-1.06989e-05
-1.076e-05
-1.0817e-05
-1.08701e-05
-1.09195e-05
-1.09651e-05
-1.10077e-05
-1.1047e-05
-1.10833e-05
-1.11167e-05
-1.11476e-05
-1.11758e-05
-1.12018e-05
-1.12254e-05
-1.1247e-05
-1.12666e-05
-1.12844e-05
-1.13004e-05
-1.13149e-05
-1.13278e-05
-1.13394e-05
-1.13498e-05
-1.13589e-05
-1.1367e-05
-1.13741e-05
-1.13803e-05
-1.13857e-05
-1.13903e-05
-1.13942e-05
-1.13976e-05
-1.14003e-05
-1.14026e-05
-1.14044e-05
-1.14058e-05
-1.14068e-05
-1.14075e-05
-1.14079e-05
-1.14081e-05
-1.1408e-05
-1.14078e-05
-1.14073e-05
-1.14067e-05
-1.1406e-05
-1.14052e-05
-1.14043e-05
-1.14032e-05
-1.14022e-05
-1.1401e-05
-1.13998e-05
-1.13986e-05
-1.13973e-05
-1.1396e-05
-1.13947e-05
-1.13933e-05
-1.13919e-05
-1.13905e-05
-1.13891e-05
-1.13877e-05
-1.13863e-05
-1.13849e-05
-1.13835e-05
-1.13821e-05
-1.13806e-05
-1.13792e-05
-1.13778e-05
-1.13763e-05
-1.13749e-05
-1.13735e-05
-1.1372e-05
-1.13706e-05
-1.13692e-05
-1.13677e-05
-1.13663e-05
-1.13648e-05
-1.13634e-05
-1.1362e-05
-1.13605e-05
-1.13591e-05
-1.13577e-05
-1.13562e-05
-1.13548e-05
-1.13534e-05
-1.1352e-05
-1.13506e-05
-1.13492e-05
-1.13478e-05
-1.13464e-05
-1.1345e-05
-1.13436e-05
-1.13422e-05
-1.13408e-05
-1.13395e-05
-1.13381e-05
-1.13368e-05
-1.13354e-05
-1.13341e-05
-1.13328e-05
-1.13315e-05
-1.13302e-05
-1.13288e-05
-1.13275e-05
-1.13263e-05
-1.1325e-05
-1.13237e-05
-1.13224e-05
-1.13211e-05
-1.13198e-05
-1.13186e-05
-1.13173e-05
-1.1316e-05
-1.13147e-05
-1.13135e-05
-1.13122e-05
-1.13109e-05
-1.13096e-05
-1.13084e-05
-1.13071e-05
-1.13058e-05
-1.13045e-05
-1.13032e-05
-1.13019e-05
-1.13006e-05
-1.12993e-05
-1.1298e-05
-1.12967e-05
-1.12954e-05
-1.12941e-05
-1.12927e-05
-1.12914e-05
-1.12901e-05
-1.12888e-05
-1.12875e-05
-1.12862e-05
-1.12848e-05
-1.12835e-05
-1.12822e-05
-1.12809e-05
-1.12796e-05
-1.12783e-05
-1.1277e-05
-1.12757e-05
-1.12744e-05
-1.12731e-05
-1.12718e-05
-1.12705e-05
-1.12692e-05
-1.12679e-05
-1.12666e-05
-1.12653e-05
-1.1264e-05
-1.12627e-05
-1.12614e-05
-1.126e-05
-1.12587e-05
-1.12574e-05
-1.12561e-05
-1.12548e-05
-1.12535e-05
-1.12521e-05
-1.12508e-05
-1.12495e-05
-1.12481e-05
-1.12468e-05
-1.12455e-05
-1.12441e-05
-1.12428e-05
-1.12414e-05
-1.12401e-05
-1.12387e-05
-1.12373e-05
-1.1236e-05
-1.12346e-05
-1.12332e-05
-1.12319e-05
-1.12305e-05
-1.12291e-05
-1.12278e-05
-1.12264e-05
-1.1225e-05
-1.12237e-05
-1.12223e-05
-1.12209e-05
-1.12195e-05
-1.12181e-05
-1.12167e-05
-1.12153e-05
-1.12139e-05
-1.12124e-05
-1.1211e-05
-1.12095e-05
-1.12081e-05
-1.12066e-05
-1.12051e-05
-1.12036e-05
-1.12021e-05
-1.12006e-05
-1.1199e-05
-1.11975e-05
-1.11959e-05
-1.11944e-05
-1.11928e-05
-1.11912e-05
-1.11896e-05
-1.11881e-05
-1.11865e-05
-1.1185e-05
-1.11834e-05
-1.11819e-05
-1.11804e-05
-1.11789e-05
-1.11775e-05
-1.11761e-05
-1.11747e-05
-1.11733e-05
-1.1172e-05
-1.11707e-05
-1.11694e-05
-1.11681e-05
-1.11669e-05
-1.11656e-05
-1.11643e-05
-1.1163e-05
-1.11617e-05
-1.11603e-05
-1.11589e-05
-1.11574e-05
-1.11559e-05
-1.11543e-05
-1.11526e-05
-1.11508e-05
-1.11489e-05
-1.1147e-05
-1.1145e-05
-1.1143e-05
-1.11409e-05
-1.11388e-05
-1.11367e-05
-1.11346e-05
-1.11325e-05
-1.11304e-05
-1.11284e-05
-1.11265e-05
-1.11247e-05
-1.11229e-05
-1.11212e-05
-1.11195e-05
-1.11179e-05
-1.11163e-05
-1.11148e-05
-1.11132e-05
-1.11115e-05
-1.11099e-05
-1.11081e-05
-1.11063e-05
-1.11043e-05
-1.11022e-05
-1.11001e-05
-1.10978e-05
-1.10954e-05
-1.1093e-05
-1.10905e-05
-1.10881e-05
-1.10856e-05
-1.10831e-05
-1.10805e-05
-1.1078e-05
-1.10754e-05
-1.10726e-05
-1.10697e-05
-1.10666e-05
-1.10632e-05
-1.10595e-05
-1.10556e-05
-1.10516e-05
-1.10474e-05
-1.10433e-05
-1.10393e-05
-1.10355e-05
-1.10319e-05
-1.10283e-05
-1.10246e-05
-1.10202e-05
-1.10144e-05
-1.10065e-05
-1.09953e-05
-1.09797e-05
-1.09584e-05
-1.09295e-05
-1.08909e-05
-1.08403e-05
-1.07756e-05
-1.06948e-05
-1.05897e-05
-1.04318e-05
-1.01675e-05
-9.73012e-06
-8.73583e-06
-2.28178e-06
0.000167152
0.000359792
0.000543388
0.0006894
0.000789192
0.000850645
0.000886159
0.000905954
0.000916774
0.000922628
0.000925779
0.000927472
0.000928381
0.00092887
0.000929134
0.000929278
0.000929358
0.000929403
0.000929429
0.000929446
0.000929457
0.000929466
0.000929473
0.000929479
0.000929484
0.00092949
0.000929495
0.0009295
0.000929506
0.000929511
0.000929516
0.000929521
0.000929526
0.000929531
0.000929536
0.000929541
0.000929546
0.000929551
0.000929556
0.000929561
0.000929566
0.000929571
0.000929576
0.00092958
0.000929585
0.00092959
0.000929595
0.0009296
0.000929604
0.000929609
0.000929614
0.000929619
0.000929623
0.000929628
0.000929633
0.000929637
0.000929642
0.000929647
0.000929651
0.000929656
0.00092966
0.000929665
0.00092967
0.000929674
0.000929679
0.000929683
0.000929688
0.000929692
0.000929696
0.000929701
0.000929705
0.00092971
0.000929714
0.000929718
0.000929723
0.000929727
0.000929731
0.000929736
0.00092974
0.000929744
0.000929749
0.000929753
0.000929757
0.000929761
0.000929765
0.00092977
0.000929774
0.000929778
0.000929782
0.000929786
0.00092979
0.000929794
0.000929798
0.000929803
0.000929807
0.000929811
0.000929815
0.000929819
0.000929823
0.000929827
0.000929831
0.000929835
0.000929838
0.000929842
0.000929846
0.00092985
0.000929854
0.000929858
0.000929862
0.000929866
0.000929869
0.000929873
0.000929877
0.000929881
0.000929885
0.000929888
0.000929892
0.000929896
0.000929899
0.000929903
0.000929907
0.000929911
0.000929914
0.000929918
0.000929921
0.000929925
0.000929929
0.000929932
0.000929936
0.000929939
0.000929943
0.000929946
0.00092995
0.000929953
0.000929957
0.00092996
0.000929964
0.000929967
0.000929971
0.000929974
0.000929978
0.000929981
0.000929984
0.000929988
0.000929991
0.000929995
0.000929998
0.000930001
0.000930005
0.000930008
0.000930011
0.000930014
0.000930018
0.000930021
0.000930024
0.000930027
0.000930031
0.000930034
0.000930037
0.00093004
0.000930043
0.000930047
0.00093005
0.000930053
0.000930056
0.000930059
0.000930062
0.000930065
0.000930068
0.000930071
0.000930074
0.000930078
0.000930081
0.000930084
0.000930087
0.00093009
0.000930093
0.000930096
0.000930099
0.000930101
0.000930104
0.000930107
0.00093011
0.000930113
0.000930116
0.000930119
0.000930122
0.000930125
0.000930127
0.00093013
0.000930133
0.000930136
0.000930139
0.000930142
0.000930144
0.000930147
0.00093015
0.000930153
0.000930155
0.000930158
0.000930161
0.000930163
0.000930166
0.000930169
0.000930172
0.000930174
0.000930177
0.000930179
0.000930182
0.000930185
0.000930187
0.00093019
0.000930193
0.000930195
0.000930198
0.0009302
0.000930203
0.000930205
0.000930208
0.00093021
0.000930213
0.000930215
0.000930218
0.00093022
0.000930223
0.000930225
0.000930228
0.00093023
0.000930233
0.000930235
0.000930237
0.00093024
0.000930242
0.000930245
0.000930247
0.000930249
0.000930252
0.000930254
0.000930256
0.000930259
0.000930261
0.000930263
0.000930266
0.000930268
0.00093027
0.000930272
0.000930275
0.000930277
0.000930279
0.000930281
0.000930284
0.000930286
0.000930288
0.00093029
0.000930292
0.000930295
0.000930297
0.000930299
0.000930301
0.000930303
0.000930305
0.000930307
0.00093031
0.000930312
0.000930314
0.000930316
0.000930318
0.00093032
0.000930322
0.000930324
0.000930326
0.000930328
0.00093033
0.000930332
0.000930334
0.000930336
0.000930338
0.00093034
0.000930342
0.000930344
0.000930346
0.000930348
0.00093035
0.000930352
0.000930354
0.000930356
0.000930358
0.00093036
0.000930361
0.000930363
0.000930365
0.000930367
0.000930369
0.000930371
0.000930373
0.000930375
0.000930376
0.000930378
0.00093038
0.000930382
0.000930384
0.000930385
0.000930387
0.000930389
0.000930391
0.000930392
0.000930394
0.000930396
0.000930398
0.000930399
0.000930401
0.000930403
0.000930405
0.000930406
0.000930408
0.00093041
0.000930411
0.000930413
0.000930415
0.000930416
0.000930418
0.000930419
0.000930421
0.000930423
0.000930424
0.000930426
0.000930428
0.000930429
0.000930431
0.000930432
0.000930434
0.000930435
0.000930437
0.000930439
0.00093044
0.000930442
0.000930443
0.000930445
0.000930446
0.000930448
0.000930449
0.000930451
0.000930452
0.000930454
0.000930455
0.000930456
0.000930458
0.000930459
0.000930461
0.000930462
0.000930464
0.000930465
0.000930467
0.000930468
0.000930469
0.000930471
0.000930472
0.000930474
0.000930475
0.000930476
0.000930478
0.000930479
0.00093048
0.000930482
0.000930483
0.000930484
0.000930486
0.000930487
0.000930488
0.00093049
0.000930491
0.000930492
0.000930493
0.000930495
0.000930496
0.000930497
0.000930498
0.0009305
0.000930501
0.000930502
0.000930503
0.000930505
0.000930506
0.000930507
0.000930508
0.000930509
0.000930511
0.000930512
0.000930513
0.000930514
0.000930515
0.000930517
0.000930518
0.000930519
0.00093052
0.000930521
0.000930522
0.000930523
0.000930524
0.000930526
0.000930527
0.000930528
0.000930529
0.00093053
0.000930531
0.000930532
0.000930533
0.000930534
0.000930535
0.000930536
0.000930537
0.000930538
0.00093054
0.000930541
0.000930542
0.000930543
0.000930544
0.000930545
0.000930546
0.000930547
0.000930548
0.000930549
0.00093055
0.000930551
0.000930552
0.000930552
0.000930553
0.000930554
0.000930555
0.000930556
0.000930557
0.000930558
0.000930559
0.00093056
0.000930561
0.000930562
0.000930563
0.000930564
0.000930565
0.000930565
0.000930566
0.000930567
0.000930568
0.000930569
0.00093057
0.000930571
0.000930571
0.000930572
0.000930573
0.000930574
0.000930575
0.000930576
0.000930576
0.000930577
0.000930578
0.000930579
0.00093058
0.00093058
0.000930581
0.000930582
0.000930583
0.000930584
0.000930584
0.000930585
0.000930586
0.000930587
0.000930587
0.000930588
0.000930589
0.000930589
0.00093059
0.000930591
0.000930592
0.000930592
0.000930593
0.000930594
0.000930594
0.000930595
0.000930596
0.000930596
0.000930597
0.000930598
0.000930598
0.000930599
0.0009306
0.0009306
0.000930601
0.000930602
0.000930602
0.000930603
0.000930604
0.000930604
0.000930605
0.000930605
0.000930606
0.000930607
0.000930607
0.000930608
0.000930608
0.000930609
0.00093061
0.00093061
0.000930611
0.000930611
0.000930612
0.000930612
0.000930613
0.000930613
0.000930614
0.000930615
0.000930615
0.000930616
0.000930616
0.000930617
0.000930617
0.000930618
0.000930618
0.000930619
0.000930619
0.00093062
0.00093062
0.000930621
0.000930621
0.000930621
0.000930622
0.000930622
0.000930623
0.000930623
0.000930624
0.000930624
0.000930625
0.000930625
0.000930626
0.000930626
0.000930626
0.000930627
0.000930627
0.000930628
0.000930628
0.000930628
0.000930629
0.000930629
0.00093063
0.00093063
0.00093063
0.000930631
0.000930631
0.000930631
0.000930632
0.000930632
0.000930633
0.000930633
0.000930633
0.000930633
0.000930634
0.000930634
0.000930635
0.000930635
0.000930635
0.000930635
0.000930636
0.000930636
0.000930636
0.000930637
0.000930637
0.000930637
0.000930638
0.000930638
0.000930638
0.000930638
0.000930639
0.000930639
0.000930639
0.000930639
0.00093064
0.00093064
0.00093064
0.00093064
0.00093064
0.000930641
0.000930641
0.000930641
0.000930641
0.000930642
0.000930642
0.000930642
0.000930642
0.000930642
0.000930643
0.000930643
0.000930643
0.000930643
0.000930643
0.000930643
0.000930644
0.000930644
0.000930644
0.000930644
0.000930644
0.000930644
0.000930645
0.000930645
0.000930645
0.000930645
0.000930645
0.000930645
0.000930645
0.000930645
0.000930645
0.000930646
0.000930646
0.000930646
0.000930646
0.000930646
0.000930646
0.000930646
0.000930646
0.000930646
0.000930646
0.000930646
0.000930646
0.000930646
0.000930647
0.000930647
0.000930647
0.000930647
0.000930647
0.000930647
0.000930647
0.000930647
0.000930647
0.000930647
0.000930647
0.000930647
0.000930647
0.000930647
0.000930647
0.000930647
0.000930647
0.000930647
0.000930647
0.000930647
0.000930647
0.000930647
0.000930646
0.000930646
0.000930646
0.000930646
0.000930646
0.000930646
0.000930646
0.000930646
0.000930646
0.000930646
0.000930646
)
;

boundaryField
{
    fixedWall
    {
        type            calculated;
        value           uniform 0;
    }
    outlet
    {
        type            calculated;
        value           uniform 0.000930646;
    }
    defaultFaces
    {
        type            empty;
    }
}


// ************************************************************************* //
