/*--------------------------------*- C++ -*----------------------------------*\
| =========                 |                                                 |
| \\      /  F ield         | OpenFOAM: The Open Source CFD Toolbox           |
|  \\    /   O peration     | Version:  2406                                  |
|   \\  /    A nd           | Website:  www.openfoam.com                      |
|    \\/     M anipulation  |                                                 |
\*---------------------------------------------------------------------------*/
FoamFile
{
    version     2.0;
    format      ascii;
    arch        "LSB;label=32;scalar=64";
    class       volScalarField;
    location    "2.2";
    object      Qdot;
}
// * * * * * * * * * * * * * * * * * * * * * * * * * * * * * * * * * * * * * //

dimensions      [1 -1 -3 0 0 0 0];

internalField   nonuniform List<scalar> 
1000
(
-2.9486e-17
-9.05046e-15
2.03559e-07
2.91697e-06
2.27085e-05
0.000114317
0.000421046
0.0012337
0.00303854
0.00653521
0.012614
0.0222947
0.0366372
0.0566402
0.0831423
0.116742
0.157743
0.206127
0.261562
0.323429
0.390878
0.462885
0.538325
0.616037
0.694883
0.773798
0.851831
0.928164
1.00213
1.07322
1.14106
1.20543
1.2662
1.32338
1.37704
1.4273
1.47437
1.51845
1.55978
1.59861
1.63519
1.66974
1.70251
1.73369
1.76349
1.79209
1.81964
1.84628
1.87214
1.89733
1.92194
1.94601
1.96949
1.99283
2.01586
2.03862
2.06115
2.08347
2.10562
2.12762
2.14949
2.17125
2.19291
2.21449
2.23601
2.25747
2.2789
2.30029
2.32168
2.34306
2.36445
2.38587
2.40732
2.42882
2.45038
2.472
2.49372
2.51552
2.53744
2.55938
2.58129
2.60366
2.62618
2.64886
2.67171
2.69474
2.71796
2.74138
2.76503
2.7889
2.81301
2.83737
2.86199
2.88688
2.91204
2.93749
2.96323
2.98927
3.01563
3.0423
3.0693
3.09664
3.12431
3.15233
3.1807
3.20944
3.23854
3.26802
3.29788
3.32812
3.35876
3.3898
3.42125
3.45312
3.4854
3.51811
3.55127
3.58486
3.6189
3.65341
3.68838
3.72383
3.75977
3.7962
3.83313
3.87058
3.90855
3.94706
3.98612
4.02573
4.0659
4.10666
4.14795
4.18939
4.23201
4.27529
4.31923
4.36384
4.40913
4.45512
4.50182
4.54925
4.59742
4.64635
4.69606
4.74656
4.79788
4.85003
4.90304
4.9569
5.01166
5.06732
5.12391
5.18144
5.23994
5.29943
5.35991
5.42143
5.484
5.54764
5.61236
5.6782
5.74497
5.81228
5.8817
5.95237
6.02428
6.09746
6.17194
6.24773
6.32488
6.40341
6.48337
6.56479
6.64771
6.73217
6.81821
6.90587
6.99521
7.08625
7.17906
7.27369
7.37018
7.46858
7.56896
7.67137
7.77586
7.8825
7.99135
8.10247
8.21592
8.33178
8.45011
8.57098
8.69446
8.82062
8.94955
9.08132
9.21601
9.35371
9.49449
9.63846
9.78569
9.9363
10.0904
10.248
10.4093
10.5744
10.7435
10.9165
11.0937
11.2752
11.4611
11.6517
11.8469
12.047
12.2522
12.4626
12.6784
12.8999
13.1271
13.3603
13.5998
13.8456
14.0982
14.3577
14.6244
14.8985
15.1804
15.4703
15.7685
16.0753
16.3911
16.7162
17.051
17.3958
17.751
18.1171
18.4945
18.8835
19.2848
19.6987
20.1258
20.5666
21.0216
21.4915
21.9769
22.4784
22.9967
23.5326
24.0867
24.6599
25.2532
25.868
26.5055
27.1667
27.853
28.5658
29.3066
30.0767
30.8779
31.712
32.5807
33.486
34.4301
35.4152
36.4437
37.518
38.6407
39.8147
41.0428
42.3283
43.6743
45.0846
46.5629
48.1133
49.7405
51.4492
53.2449
55.1337
57.1222
59.2181
61.4064
63.7215
66.1947
68.8097
71.58
74.5196
77.6434
80.9671
84.5081
88.2851
92.3183
96.6295
101.21
106.098
111.413
117.128
123.281
129.917
137.086
144.847
153.266
162.42
172.396
183.298
195.243
208.371
222.85
238.872
256.666
276.497
298.674
323.56
351.588
383.283
419.296
460.446
507.785
562.336
625.497
699.64
788.468
894.837
1023.71
1181.79
1378.22
1625.74
1942.52
2355.25
2904.36
3653.01
4702.47
6220.42
8499.4
12094.5
18175.7
29476.9
53004.1
108371
256276
723313
2.46373e+06
9.96851e+06
2.91193e+07
309716
990.166
6.30209
0.157636
0.0148067
0.00365038
0.00165425
0.0010695
0.00084381
0.00074252
0.00069329
0.000668207
0.000655055
0.000648248
0.000644571
0.000642682
0.000641545
0.000641019
0.000640776
0.000640525
0.000640514
0.000640468
0.000640444
0.000640433
0.000640428
0.000640427
0.000640427
0.000640429
0.000640431
0.000640434
0.000640436
0.000640439
0.000640442
0.000640445
0.000640448
0.00064045
0.000640453
0.000640457
0.000640459
0.000640463
0.000640465
0.000640468
0.000640471
0.000640474
0.000640477
0.00064048
0.000640483
0.000640487
0.000640489
0.000640493
0.000640495
0.000640498
0.000640501
0.000640504
0.000640506
0.00064051
0.000640513
0.000640516
0.000640519
0.000640522
0.000640525
0.000640527
0.000640531
0.000640533
0.000640537
0.00064054
0.000640542
0.000640545
0.000640548
0.000640551
0.000640473
0.000640477
0.00064048
0.000640483
0.000640486
0.000640488
0.000640492
0.000640495
0.000640498
0.0006405
0.000640503
0.000640506
0.000640589
0.000640512
0.000640515
0.000640598
0.000640522
0.000640525
0.000640527
0.00064053
0.000640533
0.000640536
0.000640538
0.000640542
0.000640544
0.000640548
0.00064055
0.000640554
0.000640556
0.000640559
0.000640563
0.000640566
0.000640649
0.000640572
0.000640574
0.000640578
0.00064058
0.000640583
0.000640585
0.00064059
0.000640592
0.000640595
0.000640597
0.0006406
0.000640603
0.000640607
0.000640609
0.000640612
0.000640695
0.000640618
0.000640621
0.000640704
0.000640626
0.00064063
0.000640713
0.000640635
0.000640638
0.00064064
0.000640644
0.000640648
0.000640652
0.000640654
0.000640658
0.000640741
0.000640663
0.000640666
0.000640669
0.000640671
0.000640674
0.000640677
0.000640681
0.000640764
0.000640767
0.000640769
0.000640692
0.000640694
0.000640698
0.00064078
0.000640784
0.000640707
0.00064071
0.000640713
0.000640716
0.000640719
0.000640802
0.000640724
0.000640728
0.00064073
0.000640733
0.000640736
0.000640739
0.000640742
0.000640744
0.000640748
0.000640751
0.000640754
0.000640837
0.000640759
0.000640762
0.000640765
0.000640848
0.000640771
0.000640774
0.000640777
0.000640781
0.000640864
0.000640786
0.000640789
0.000640792
0.000640795
0.000640797
0.000640801
0.000640805
0.000640808
0.000640811
0.000640813
0.000640897
0.00064082
0.000640822
0.000640905
0.000640827
0.000640911
0.000640834
0.000640836
0.00064084
0.000640923
0.000640847
0.000640849
0.000640852
0.000640854
0.000640858
0.000640861
0.000640864
0.000640948
0.00064087
0.000640954
0.000640956
0.000640879
0.000640962
0.000640965
0.000640888
0.000640891
0.000640893
0.000640897
0.000640899
0.000640903
0.000640985
0.000640908
0.000640912
0.000640915
0.000640917
0.00064092
0.000640923
0.000640927
0.000640929
0.000640932
0.000640936
0.000640939
0.000640941
0.000640945
0.000640947
0.00064103
0.000640952
0.000640955
0.000640958
0.000640962
0.000640965
0.000640968
0.000640971
0.000640974
0.000640977
0.000640981
0.000640983
0.000640986
0.00064099
0.000640992
0.000641076
0.000641078
0.000641003
0.000641006
0.000641009
0.000641011
0.000641015
0.000641099
0.000641021
0.000641024
0.000641107
0.000641029
0.000641032
0.000641035
0.000641038
0.000641041
0.000641045
0.000641047
0.00064105
0.000641054
0.000641057
0.00064106
0.000641062
0.000641066
0.000641069
0.000641071
0.000641155
0.000641158
0.00064108
0.000641163
0.000641165
0.000641089
0.000641092
0.000641095
0.000641099
0.000641101
0.000641185
0.000641108
0.000641111
0.000641114
0.000641117
0.00064112
0.000641123
0.000641207
0.00064121
0.000641133
0.000641217
0.000641139
0.000641142
0.000641145
0.000641149
0.000641152
0.000641154
0.000641157
0.00064124
0.000641164
0.000641166
0.000641169
0.000641172
0.000641176
0.000641178
0.000641182
0.000641184
0.000641187
0.00064127
0.000641193
0.000641195
0.000641199
0.000641282
0.000641286
0.000641209
0.000641213
0.000641216
0.000641219
0.000641222
0.000641225
0.000641308
0.00064123
0.000641234
0.000641236
0.00064124
0.000641322
0.000641246
0.000641248
0.000641172
0.000641255
0.000641258
0.000641261
0.000641264
0.000641267
0.00064119
0.000641192
0.000641196
0.000641199
0.000641202
0.000641205
0.000641208
0.000641211
0.000641295
0.000641218
0.000641301
0.000641303
0.000641226
0.00064123
0.000641313
0.000641237
0.000641319
0.000641323
0.000641326
0.000641249
0.000641331
0.000641254
0.000641258
0.000641341
0.000641264
0.000641266
0.00064135
0.000641353
0.000641356
0.000641279
0.000641363
0.000641285
0.000641289
0.000641293
0.000641376
0.000641298
0.000641382
0.000641384
0.000641387
0.00064131
0.000641312
0.000641396
0.000641398
0.000641403
0.000641325
0.000641328
0.000641412
0.000641415
0.000641418
0.000641341
0.000641425
0.000641348
0.000641351
0.000641354
0.000641437
0.000641439
0.000641443
0.000641366
0.000641369
0.000641372
0.000641375
0.000641378
0.000641462
0.000641465
0.000641387
0.000641391
0.000641474
0.000641478
0.0006414
0.000641484
0.000641406
0.00064149
0.000641493
0.000641495
0.000641499
0.000641421
0.000641505
0.000641428
0.000641511
0.000641514
0.000641437
0.00064144
0.000641442
0.000641526
0.00064153
0.000641453
0.000641536
0.000641459
0.000641462
0.000641545
0.000641548
0.000641551
0.000641554
0.000641477
0.00064148
0.000641483
0.000641486
0.000641569
0.000641493
0.000641496
0.000641498
0.000641501
0.000641584
0.000641588
0.000641511
0.000641515
0.000641599
0.000641602
0.000641605
0.000641608
0.00064161
0.000641614
0.000641617
0.00064154
0.000641543
0.000641547
0.00064163
0.000641552
0.000641635
0.000641639
0.000641562
0.000641645
0.000641568
0.00064157
0.000641574
0.000641577
0.00064166
0.000641582
0.000641585
0.000641668
0.000641591
0.000641596
0.000641679
0.000641602
0.000641686
0.000641689
0.000641693
0.000641616
0.000641699
0.000641622
0.000641625
0.000641707
0.000641631
0.000641634
0.000641717
0.00064172
0.000641643
0.000641646
0.000641649
0.000641732
0.000641735
0.000641658
0.000641661
0.000641664
0.000641748
0.000641751
0.000641673
0.000641756
0.00064176
0.000641762
0.000641766
0.000641689
0.000641691
0.000641774
0.000641778
0.0006417
0.000641785
0.000641788
0.000641792
0.000641795
0.000641718
0.000641721
0.000641724
0.000641727
0.000641811
0.000641813
0.000641818
0.000641741
0.000641744
0.000641746
0.000641749
0.000641834
0.000641757
0.000641841
0.000641844
0.000641766
0.000641769
0.000641772
0.000641855
0.000641778
0.000641781
0.000641865
0.000641867
0.000641871
0.000641794
0.000641877
0.00064188
0.000641883
0.000641806
0.000641809
0.000641812
0.000641815
0.000641817
0.000641901
0.000641824
0.000641907
0.00064183
0.000641833
0.000641916
0.000641838
0.000641923
0.000641848
0.000641931
0.000641854
0.000641938
0.000641941
0.000641944
0.000641947
0.00064195
0.000641952
0.000641875
0.000641958
0.00064188
0.000641884
0.000641888
0.000641972
0.000641974
0.000641898
0.0006419
0.000641984
0.000641907
0.000641991
0.000641914
0.000641998
0.000642001
0.000641923
0.000641927
0.000642011
0.000642014
0.000641937
0.00064194
0.000642023
0.000641947
0.000641949
0.000641872
0.000641875
0.000641958
0.000641962
0.000641964
0.000641887
0.000641971
0.000641974
0.000641897
0.00064198
0.000641903
0.000641906
0.00064199
0.000641993
0.000641996
0.000641919
0.000641923
0.000642006
0.000642009
0.000642012
0.000642015
0.000641938
0.000642021
0.000642024
0.000641948
0.000641951
0.000641954
0.000642037
0.000642041
0.000641964
0.000642048
0.000642051
0.000642054
0.000642058
0.000641979
0.000642063
0.000642067
0.00064207
0.000641993
0.000641996
0.000641999
0.000642002
0.000642006
0.000642089
0.000642011
0.000642014
0.000642099
0.000642021
0.000642105
0.000642108
0.000642112
0.000642035
0.000642119
0.000642121
0.000642045
0.000642047
0.00064205
0.000642053
0.000642136
0.000642141
0.000642143
0.000642148
0.000642071
0.000642155
0.000642157
0.000642161
0.000642163
0.000642086
0.000642169
0.000642093
0.000642176
0.00064218
0.000642183
0.000642186
0.000642189
)
;

boundaryField
{
    fixedWall
    {
        type            calculated;
        value           uniform 0;
    }
    outlet
    {
        type            calculated;
        value           uniform 0;
    }
    defaultFaces
    {
        type            empty;
    }
}


// ************************************************************************* //
