/*--------------------------------*- C++ -*----------------------------------*\
| =========                 |                                                 |
| \\      /  F ield         | OpenFOAM: The Open Source CFD Toolbox           |
|  \\    /   O peration     | Version:  2406                                  |
|   \\  /    A nd           | Website:  www.openfoam.com                      |
|    \\/     M anipulation  |                                                 |
\*---------------------------------------------------------------------------*/
FoamFile
{
    version     2.0;
    format      ascii;
    arch        "LSB;label=32;scalar=64";
    class       volScalarField;
    location    "2.2";
    object      T;
}
// * * * * * * * * * * * * * * * * * * * * * * * * * * * * * * * * * * * * * //

dimensions      [0 0 0 1 0 0 0];

internalField   nonuniform List<scalar> 
1000
(
322.77
372.617
415.471
453.204
486.96
517.5
545.363
570.948
594.555
616.424
636.745
655.674
673.34
689.852
705.305
719.78
733.346
746.068
758.001
769.196
779.698
789.55
798.788
807.45
815.567
823.17
830.288
836.948
843.174
848.991
854.422
859.487
864.207
868.602
872.689
876.487
880.012
883.279
886.305
889.102
891.687
894.071
896.266
898.286
900.141
901.843
903.4
904.824
906.124
907.307
908.384
909.359
910.236
911.037
911.759
912.409
912.993
913.516
913.983
914.4
914.769
915.096
915.385
915.639
915.861
916.055
916.223
916.368
916.492
916.598
916.688
916.762
916.825
916.875
916.916
916.948
916.972
916.99
917.002
917.009
917.012
917.011
917.008
917.002
916.994
916.984
916.973
916.961
916.948
916.935
916.922
916.908
916.894
916.88
916.866
916.853
916.839
916.827
916.814
916.802
916.79
916.779
916.768
916.757
916.747
916.738
916.729
916.72
916.712
916.704
916.696
916.689
916.683
916.677
916.671
916.665
916.66
916.656
916.652
916.648
916.644
916.641
916.638
916.635
916.633
916.631
916.629
916.628
916.626
916.625
916.625
916.624
916.624
916.623
916.623
916.624
916.624
916.624
916.625
916.625
916.626
916.627
916.628
916.628
916.629
916.63
916.631
916.632
916.633
916.634
916.634
916.635
916.636
916.636
916.637
916.637
916.638
916.638
916.638
916.639
916.639
916.639
916.639
916.639
916.639
916.639
916.639
916.639
916.639
916.639
916.638
916.638
916.638
916.638
916.637
916.637
916.637
916.636
916.636
916.636
916.635
916.635
916.635
916.634
916.634
916.633
916.632
916.632
916.631
916.63
916.629
916.628
916.627
916.626
916.625
916.624
916.623
916.621
916.62
916.619
916.617
916.615
916.614
916.612
916.61
916.609
916.607
916.605
916.603
916.601
916.599
916.597
916.595
916.593
916.591
916.589
916.587
916.585
916.583
916.58
916.578
916.576
916.574
916.572
916.569
916.567
916.565
916.563
916.56
916.558
916.556
916.553
916.551
916.549
916.546
916.544
916.542
916.54
916.538
916.536
916.534
916.532
916.531
916.529
916.528
916.527
916.526
916.525
916.524
916.523
916.523
916.523
916.522
916.522
916.522
916.522
916.522
916.521
916.521
916.52
916.519
916.518
916.516
916.514
916.512
916.509
916.506
916.502
916.498
916.494
916.489
916.485
916.48
916.475
916.471
916.466
916.462
916.458
916.455
916.452
916.45
916.449
916.448
916.448
916.449
916.45
916.451
916.453
916.455
916.458
916.46
916.462
916.463
916.464
916.465
916.465
916.465
916.464
916.463
916.461
916.459
916.458
916.456
916.454
916.452
916.451
916.45
916.449
916.449
916.448
916.448
916.447
916.447
916.446
916.445
916.444
916.443
916.442
916.441
916.441
916.441
916.441
916.441
916.439
916.435
916.428
916.416
916.399
916.376
916.348
916.315
916.278
916.24
916.203
916.168
916.135
916.099
916.043
915.918
915.609
914.842
912.819
906.721
885.314
792.289
597.014
468.524
390.654
346.171
321.642
308.351
301.207
297.38
295.333
294.238
293.653
293.34
293.173
293.083
293.035
293.01
292.996
292.989
292.985
292.983
292.982
292.981
292.981
292.981
292.98
292.98
292.98
292.98
292.98
292.98
292.98
292.981
292.981
292.981
292.981
292.981
292.981
292.981
292.981
292.981
292.981
292.981
292.981
292.981
292.981
292.981
292.981
292.981
292.981
292.981
292.981
292.981
292.981
292.981
292.981
292.981
292.981
292.981
292.981
292.981
292.981
292.981
292.981
292.981
292.981
292.981
292.981
292.981
292.981
292.981
292.981
292.982
292.982
292.982
292.982
292.982
292.982
292.982
292.982
292.982
292.982
292.982
292.982
292.982
292.982
292.982
292.982
292.982
292.982
292.982
292.982
292.982
292.982
292.982
292.982
292.982
292.982
292.982
292.982
292.982
292.982
292.982
292.982
292.982
292.982
292.982
292.982
292.982
292.982
292.982
292.982
292.983
292.983
292.983
292.983
292.983
292.983
292.983
292.983
292.983
292.983
292.983
292.983
292.983
292.983
292.983
292.983
292.983
292.983
292.983
292.983
292.983
292.983
292.983
292.983
292.983
292.983
292.983
292.983
292.983
292.983
292.983
292.983
292.983
292.983
292.983
292.983
292.983
292.983
292.983
292.983
292.984
292.984
292.984
292.984
292.984
292.984
292.984
292.984
292.984
292.984
292.984
292.984
292.984
292.984
292.984
292.984
292.984
292.984
292.984
292.984
292.984
292.984
292.984
292.984
292.984
292.984
292.984
292.984
292.984
292.984
292.984
292.984
292.984
292.984
292.984
292.984
292.984
292.984
292.984
292.984
292.985
292.985
292.985
292.985
292.985
292.985
292.985
292.985
292.985
292.985
292.985
292.985
292.985
292.985
292.985
292.985
292.985
292.985
292.985
292.985
292.985
292.985
292.985
292.985
292.985
292.985
292.985
292.985
292.985
292.985
292.985
292.985
292.985
292.985
292.985
292.985
292.985
292.985
292.985
292.986
292.986
292.986
292.986
292.986
292.986
292.986
292.986
292.986
292.986
292.986
292.986
292.986
292.986
292.986
292.986
292.986
292.986
292.986
292.986
292.986
292.986
292.986
292.986
292.986
292.986
292.986
292.986
292.986
292.986
292.986
292.986
292.986
292.986
292.986
292.986
292.986
292.986
292.986
292.987
292.987
292.987
292.987
292.987
292.987
292.987
292.987
292.987
292.987
292.987
292.987
292.987
292.987
292.987
292.987
292.987
292.987
292.987
292.987
292.987
292.987
292.987
292.987
292.987
292.987
292.987
292.987
292.987
292.987
292.987
292.987
292.987
292.987
292.987
292.987
292.987
292.987
292.988
292.988
292.988
292.988
292.988
292.988
292.988
292.988
292.988
292.988
292.988
292.988
292.988
292.988
292.988
292.988
292.988
292.988
292.988
292.988
292.988
292.988
292.988
292.988
292.988
292.988
292.988
292.988
292.988
292.988
292.988
292.988
292.988
292.988
292.988
292.988
292.988
292.988
292.989
292.989
292.989
292.989
292.989
292.989
292.989
292.989
292.989
292.989
292.989
292.989
292.989
292.989
292.989
292.989
292.989
292.989
292.989
292.989
292.989
292.989
292.989
292.989
292.989
292.989
292.989
292.989
292.989
292.989
292.989
292.989
292.989
292.989
292.989
292.989
292.989
292.989
292.99
292.99
292.99
292.99
292.99
292.99
292.99
292.99
292.99
292.99
292.99
292.99
292.99
292.99
292.99
292.99
292.99
292.99
292.99
292.99
292.99
292.99
292.99
292.99
292.99
292.99
292.99
292.99
292.99
292.99
292.99
292.99
292.99
292.99
292.99
292.99
292.99
292.991
292.991
292.991
292.991
292.991
292.991
292.991
292.991
292.991
292.991
292.991
292.991
292.991
292.991
292.991
292.991
292.991
292.991
292.991
292.991
292.991
292.991
292.991
292.991
292.991
292.991
292.991
292.991
292.991
292.991
292.991
292.991
292.991
292.991
292.991
292.991
292.991
292.991
292.992
292.992
292.992
292.992
292.992
292.992
292.992
292.992
292.992
292.992
292.992
292.992
292.992
292.992
292.992
292.992
292.992
292.992
292.992
292.992
292.992
292.992
292.992
292.992
292.992
292.992
292.992
292.992
292.992
292.992
292.992
292.992
292.992
292.992
292.992
292.992
292.992
292.992
292.993
292.993
292.993
292.993
292.993
292.993
292.993
292.993
292.993
292.993
292.993
292.993
292.993
292.993
292.993
292.993
292.993
292.993
292.993
292.993
292.993
292.993
292.993
292.993
292.993
292.993
292.993
292.993
292.993
292.993
292.993
292.993
292.993
292.993
292.993
292.993
292.994
292.994
292.994
292.994
292.994
292.994
292.994
292.994
292.994
292.994
292.994
292.994
292.994
292.994
292.994
292.994
292.994
292.994
292.994
292.994
292.994
292.994
292.994
292.994
292.994
292.994
292.994
292.994
292.994
292.994
292.994
292.994
292.994
292.994
292.994
292.994
292.994
292.995
292.995
292.995
292.995
292.995
292.995
292.995
292.995
292.995
292.995
292.995
292.995
292.995
292.995
292.995
292.995
292.995
292.995
292.995
292.995
292.995
292.995
292.995
292.995
292.995
292.995
292.995
292.995
292.995
292.995
292.995
292.995
292.995
292.995
292.995
292.995
292.995
292.996
292.996
292.996
292.996
292.996
292.996
292.996
292.996
292.996
292.996
292.996
292.996
292.996
292.996
292.996
292.996
292.996
292.996
292.996
292.996
292.996
292.996
292.996
292.996
292.996
292.996
292.996
292.996
292.996
292.996
292.996
292.996
292.996
292.996
292.996
292.996
292.997
292.997
292.997
292.997
292.997
292.997
292.997
292.997
292.997
292.997
292.997
292.997
292.997
)
;

boundaryField
{
    fixedWall
    {
        type            fixedValue;
        value           uniform 293;
    }
    outlet
    {
        type            inletOutlet;
        inletValue      uniform 293;
        value           uniform 292.997;
    }
    defaultFaces
    {
        type            empty;
    }
}


// ************************************************************************* //
