/*--------------------------------*- C++ -*----------------------------------*\
| =========                 |                                                 |
| \\      /  F ield         | OpenFOAM: The Open Source CFD Toolbox           |
|  \\    /   O peration     | Version:  2406                                  |
|   \\  /    A nd           | Website:  www.openfoam.com                      |
|    \\/     M anipulation  |                                                 |
\*---------------------------------------------------------------------------*/
FoamFile
{
    version     2.0;
    format      ascii;
    arch        "LSB;label=32;scalar=64";
    class       volVectorField;
    location    "2.2";
    object      U;
}
// * * * * * * * * * * * * * * * * * * * * * * * * * * * * * * * * * * * * * //

dimensions      [0 1 -1 0 0 0 0];

internalField   nonuniform List<vector> 
1000
(
(-1.19862e-05 0 0)
(-5.16563e-05 0 0)
(-0.00012136 0 0)
(-0.000208413 0 0)
(-0.000306476 0 0)
(-0.000412155 0 0)
(-0.000523257 0 0)
(-0.00063813 0 0)
(-0.00075549 0 0)
(-0.000874332 0 0)
(-0.000993858 0 0)
(-0.00111342 0 0)
(-0.00123248 0 0)
(-0.00135059 0 0)
(-0.00146738 0 0)
(-0.00158252 0 0)
(-0.00169574 0 0)
(-0.00180681 0 0)
(-0.00191553 0 0)
(-0.00202173 0 0)
(-0.00212526 0 0)
(-0.00222602 0 0)
(-0.00232388 0 0)
(-0.00241879 0 0)
(-0.00251067 0 0)
(-0.00259947 0 0)
(-0.00268517 0 0)
(-0.00276773 0 0)
(-0.00284716 0 0)
(-0.00292345 0 0)
(-0.00299662 0 0)
(-0.00306668 0 0)
(-0.00313368 0 0)
(-0.00319764 0 0)
(-0.00325861 0 0)
(-0.00331664 0 0)
(-0.00337179 0 0)
(-0.00342413 0 0)
(-0.00347371 0 0)
(-0.00352062 0 0)
(-0.00356492 0 0)
(-0.0036067 0 0)
(-0.00364603 0 0)
(-0.003683 0 0)
(-0.00371769 0 0)
(-0.00375019 0 0)
(-0.00378058 0 0)
(-0.00380896 0 0)
(-0.00383541 0 0)
(-0.00386001 0 0)
(-0.00388282 0 0)
(-0.00390391 0 0)
(-0.00392343 0 0)
(-0.00394147 0 0)
(-0.0039581 0 0)
(-0.0039734 0 0)
(-0.00398744 0 0)
(-0.0040003 0 0)
(-0.00401206 0 0)
(-0.00402277 0 0)
(-0.0040325 0 0)
(-0.00404133 0 0)
(-0.00404928 0 0)
(-0.00405648 0 0)
(-0.00406293 0 0)
(-0.0040687 0 0)
(-0.00407386 0 0)
(-0.00407843 0 0)
(-0.00408248 0 0)
(-0.00408604 0 0)
(-0.00408917 0 0)
(-0.00409188 0 0)
(-0.00409426 0 0)
(-0.00409623 0 0)
(-0.00409797 0 0)
(-0.00409941 0 0)
(-0.0041006 0 0)
(-0.00410161 0 0)
(-0.00410235 0 0)
(-0.00410297 0 0)
(-0.00410341 0 0)
(-0.00410372 0 0)
(-0.0041039 0 0)
(-0.00410397 0 0)
(-0.00410396 0 0)
(-0.00410385 0 0)
(-0.00410368 0 0)
(-0.00410343 0 0)
(-0.00410314 0 0)
(-0.0041028 0 0)
(-0.00410242 0 0)
(-0.00410201 0 0)
(-0.00410157 0 0)
(-0.0041011 0 0)
(-0.00410062 0 0)
(-0.00410012 0 0)
(-0.00409961 0 0)
(-0.00409908 0 0)
(-0.00409855 0 0)
(-0.00409801 0 0)
(-0.00409747 0 0)
(-0.00409692 0 0)
(-0.00409638 0 0)
(-0.00409583 0 0)
(-0.00409527 0 0)
(-0.00409472 0 0)
(-0.00409417 0 0)
(-0.00409362 0 0)
(-0.00409307 0 0)
(-0.00409252 0 0)
(-0.00409197 0 0)
(-0.00409143 0 0)
(-0.00409088 0 0)
(-0.00409034 0 0)
(-0.00408979 0 0)
(-0.00408925 0 0)
(-0.00408871 0 0)
(-0.00408818 0 0)
(-0.00408764 0 0)
(-0.0040871 0 0)
(-0.00408657 0 0)
(-0.00408604 0 0)
(-0.00408551 0 0)
(-0.00408498 0 0)
(-0.00408446 0 0)
(-0.00408393 0 0)
(-0.00408341 0 0)
(-0.00408289 0 0)
(-0.00408238 0 0)
(-0.00408187 0 0)
(-0.00408135 0 0)
(-0.00408085 0 0)
(-0.00408034 0 0)
(-0.00407984 0 0)
(-0.00407934 0 0)
(-0.00407885 0 0)
(-0.00407835 0 0)
(-0.00407787 0 0)
(-0.00407738 0 0)
(-0.0040769 0 0)
(-0.00407642 0 0)
(-0.00407594 0 0)
(-0.00407547 0 0)
(-0.00407499 0 0)
(-0.00407452 0 0)
(-0.00407406 0 0)
(-0.00407359 0 0)
(-0.00407313 0 0)
(-0.00407267 0 0)
(-0.00407221 0 0)
(-0.00407175 0 0)
(-0.0040713 0 0)
(-0.00407084 0 0)
(-0.00407038 0 0)
(-0.00406993 0 0)
(-0.00406947 0 0)
(-0.00406902 0 0)
(-0.00406856 0 0)
(-0.0040681 0 0)
(-0.00406765 0 0)
(-0.00406719 0 0)
(-0.00406673 0 0)
(-0.00406627 0 0)
(-0.0040658 0 0)
(-0.00406534 0 0)
(-0.00406488 0 0)
(-0.00406441 0 0)
(-0.00406394 0 0)
(-0.00406347 0 0)
(-0.004063 0 0)
(-0.00406253 0 0)
(-0.00406206 0 0)
(-0.00406158 0 0)
(-0.00406111 0 0)
(-0.00406064 0 0)
(-0.00406016 0 0)
(-0.00405969 0 0)
(-0.00405921 0 0)
(-0.00405874 0 0)
(-0.00405826 0 0)
(-0.00405778 0 0)
(-0.00405731 0 0)
(-0.00405684 0 0)
(-0.00405636 0 0)
(-0.00405589 0 0)
(-0.00405541 0 0)
(-0.00405494 0 0)
(-0.00405447 0 0)
(-0.004054 0 0)
(-0.00405353 0 0)
(-0.00405306 0 0)
(-0.00405258 0 0)
(-0.00405211 0 0)
(-0.00405164 0 0)
(-0.00405117 0 0)
(-0.0040507 0 0)
(-0.00405022 0 0)
(-0.00404975 0 0)
(-0.00404927 0 0)
(-0.0040488 0 0)
(-0.00404832 0 0)
(-0.00404784 0 0)
(-0.00404736 0 0)
(-0.00404688 0 0)
(-0.00404639 0 0)
(-0.00404591 0 0)
(-0.00404542 0 0)
(-0.00404493 0 0)
(-0.00404444 0 0)
(-0.00404395 0 0)
(-0.00404346 0 0)
(-0.00404297 0 0)
(-0.00404247 0 0)
(-0.00404198 0 0)
(-0.00404148 0 0)
(-0.00404098 0 0)
(-0.00404048 0 0)
(-0.00403998 0 0)
(-0.00403948 0 0)
(-0.00403898 0 0)
(-0.00403848 0 0)
(-0.00403798 0 0)
(-0.00403748 0 0)
(-0.00403698 0 0)
(-0.00403647 0 0)
(-0.00403597 0 0)
(-0.00403546 0 0)
(-0.00403495 0 0)
(-0.00403444 0 0)
(-0.00403393 0 0)
(-0.00403342 0 0)
(-0.0040329 0 0)
(-0.00403238 0 0)
(-0.00403186 0 0)
(-0.00403134 0 0)
(-0.00403081 0 0)
(-0.00403027 0 0)
(-0.00402974 0 0)
(-0.00402919 0 0)
(-0.00402865 0 0)
(-0.0040281 0 0)
(-0.00402754 0 0)
(-0.00402699 0 0)
(-0.00402642 0 0)
(-0.00402586 0 0)
(-0.00402529 0 0)
(-0.00402472 0 0)
(-0.00402415 0 0)
(-0.00402358 0 0)
(-0.00402302 0 0)
(-0.00402245 0 0)
(-0.00402189 0 0)
(-0.00402133 0 0)
(-0.00402078 0 0)
(-0.00402024 0 0)
(-0.00401971 0 0)
(-0.00401918 0 0)
(-0.00401867 0 0)
(-0.00401816 0 0)
(-0.00401766 0 0)
(-0.00401717 0 0)
(-0.00401669 0 0)
(-0.00401622 0 0)
(-0.00401575 0 0)
(-0.00401529 0 0)
(-0.00401482 0 0)
(-0.00401435 0 0)
(-0.00401387 0 0)
(-0.00401338 0 0)
(-0.00401288 0 0)
(-0.00401236 0 0)
(-0.00401182 0 0)
(-0.00401126 0 0)
(-0.00401067 0 0)
(-0.00401005 0 0)
(-0.00400941 0 0)
(-0.00400874 0 0)
(-0.00400804 0 0)
(-0.00400732 0 0)
(-0.00400658 0 0)
(-0.00400583 0 0)
(-0.00400507 0 0)
(-0.00400431 0 0)
(-0.00400354 0 0)
(-0.00400279 0 0)
(-0.00400205 0 0)
(-0.00400133 0 0)
(-0.00400064 0 0)
(-0.00399997 0 0)
(-0.00399932 0 0)
(-0.0039987 0 0)
(-0.00399811 0 0)
(-0.00399753 0 0)
(-0.00399696 0 0)
(-0.0039964 0 0)
(-0.00399584 0 0)
(-0.00399526 0 0)
(-0.00399467 0 0)
(-0.00399404 0 0)
(-0.00399339 0 0)
(-0.0039927 0 0)
(-0.00399197 0 0)
(-0.00399119 0 0)
(-0.00399039 0 0)
(-0.00398955 0 0)
(-0.00398868 0 0)
(-0.0039878 0 0)
(-0.0039869 0 0)
(-0.003986 0 0)
(-0.0039851 0 0)
(-0.0039842 0 0)
(-0.00398329 0 0)
(-0.00398235 0 0)
(-0.00398139 0 0)
(-0.00398037 0 0)
(-0.00397928 0 0)
(-0.00397815 0 0)
(-0.00397677 0 0)
(-0.00397547 0 0)
(-0.00397409 0 0)
(-0.00397254 0 0)
(-0.00397106 0 0)
(-0.00396963 0 0)
(-0.00396817 0 0)
(-0.00396684 0 0)
(-0.00396545 0 0)
(-0.00396446 0 0)
(-0.00396248 0 0)
(-0.0039608 0 0)
(-0.00395865 0 0)
(-0.00395474 0 0)
(-0.00395022 0 0)
(-0.00394363 0 0)
(-0.00393468 0 0)
(-0.00392234 0 0)
(-0.00390652 0 0)
(-0.00388524 0 0)
(-0.00385905 0 0)
(-0.003801 0 0)
(-0.00377596 0 0)
(-0.00395615 0 0)
(-0.0040941 0 0)
(-0.00629223 0 0)
(-0.00568242 0 0)
(0.0191447 0 0)
(0.0585802 0 0)
(0.0840692 0 0)
(0.0962721 0 0)
(0.101939 0 0)
(0.104512 0 0)
(0.105666 0 0)
(0.106228 0 0)
(0.106502 0 0)
(0.106675 0 0)
(0.106741 0 0)
(0.10678 0 0)
(0.106792 0 0)
(0.106821 0 0)
(0.106822 0 0)
(0.106806 0 0)
(0.106833 0 0)
(0.106848 0 0)
(0.106824 0 0)
(0.106801 0 0)
(0.106848 0 0)
(0.106834 0 0)
(0.106808 0 0)
(0.106866 0 0)
(0.106807 0 0)
(0.106848 0 0)
(0.106842 0 0)
(0.106806 0 0)
(0.10686 0 0)
(0.106822 0 0)
(0.106851 0 0)
(0.106838 0 0)
(0.106811 0 0)
(0.10686 0 0)
(0.106848 0 0)
(0.106812 0 0)
(0.106847 0 0)
(0.106862 0 0)
(0.106808 0 0)
(0.106862 0 0)
(0.106855 0 0)
(0.106806 0 0)
(0.106871 0 0)
(0.106846 0 0)
(0.106813 0 0)
(0.106879 0 0)
(0.106846 0 0)
(0.106811 0 0)
(0.106868 0 0)
(0.106851 0 0)
(0.106863 0 0)
(0.106822 0 0)
(0.106852 0 0)
(0.106864 0 0)
(0.10682 0 0)
(0.106876 0 0)
(0.106863 0 0)
(0.106821 0 0)
(0.106863 0 0)
(0.106875 0 0)
(0.106821 0 0)
(0.10686 0 0)
(0.106876 0 0)
(0.106827 0 0)
(0.10687 0 0)
(0.106865 0 0)
(0.106827 0 0)
(0.106882 0 0)
(0.106853 0 0)
(0.106845 0 0)
(0.106874 0 0)
(0.106843 0 0)
(0.10687 0 0)
(0.106873 0 0)
(0.106837 0 0)
(0.106868 0 0)
(0.106878 0 0)
(0.106846 0 0)
(0.106863 0 0)
(0.106859 0 0)
(0.10687 0 0)
(0.106876 0 0)
(0.106843 0 0)
(0.106876 0 0)
(0.106872 0 0)
(0.106839 0 0)
(0.106894 0 0)
(0.106871 0 0)
(0.106836 0 0)
(0.106895 0 0)
(0.106866 0 0)
(0.106876 0 0)
(0.106857 0 0)
(0.106853 0 0)
(0.106894 0 0)
(0.10686 0 0)
(0.106881 0 0)
(0.106851 0 0)
(0.106888 0 0)
(0.106877 0 0)
(0.10688 0 0)
(0.106859 0 0)
(0.106866 0 0)
(0.106888 0 0)
(0.106869 0 0)
(0.106891 0 0)
(0.106871 0 0)
(0.106849 0 0)
(0.106897 0 0)
(0.106879 0 0)
(0.106887 0 0)
(0.106868 0 0)
(0.106846 0 0)
(0.106899 0 0)
(0.1069 0 0)
(0.106862 0 0)
(0.10687 0 0)
(0.106898 0 0)
(0.106864 0 0)
(0.106889 0 0)
(0.10689 0 0)
(0.106887 0 0)
(0.106855 0 0)
(0.106896 0 0)
(0.106899 0 0)
(0.106853 0 0)
(0.106908 0 0)
(0.106898 0 0)
(0.10685 0 0)
(0.106901 0 0)
(0.106902 0 0)
(0.106863 0 0)
(0.106903 0 0)
(0.106874 0 0)
(0.106898 0 0)
(0.106901 0 0)
(0.106864 0 0)
(0.106902 0 0)
(0.106892 0 0)
(0.106892 0 0)
(0.106877 0 0)
(0.106883 0 0)
(0.106913 0 0)
(0.106872 0 0)
(0.1069 0 0)
(0.106903 0 0)
(0.106877 0 0)
(0.106903 0 0)
(0.1069 0 0)
(0.106866 0 0)
(0.10692 0 0)
(0.106894 0 0)
(0.106867 0 0)
(0.106919 0 0)
(0.106908 0 0)
(0.106861 0 0)
(0.106914 0 0)
(0.106913 0 0)
(0.106873 0 0)
(0.106909 0 0)
(0.106894 0 0)
(0.106905 0 0)
(0.106905 0 0)
(0.106878 0 0)
(0.106906 0 0)
(0.106916 0 0)
(0.106885 0 0)
(0.106903 0 0)
(0.106894 0 0)
(0.106915 0 0)
(0.106905 0 0)
(0.106884 0 0)
(0.106917 0 0)
(0.106897 0 0)
(0.106902 0 0)
(0.106917 0 0)
(0.106901 0 0)
(0.106877 0 0)
(0.106926 0 0)
(0.106911 0 0)
(0.106883 0 0)
(0.106928 0 0)
(0.106895 0 0)
(0.106907 0 0)
(0.106907 0 0)
(0.106911 0 0)
(0.106913 0 0)
(0.10689 0 0)
(0.106911 0 0)
(0.106909 0 0)
(0.106907 0 0)
(0.106919 0 0)
(0.106901 0 0)
(0.106913 0 0)
(0.106907 0 0)
(0.106909 0 0)
(0.106905 0 0)
(0.106915 0 0)
(0.106913 0 0)
(0.10692 0 0)
(0.106918 0 0)
(0.106867 0 0)
(0.106927 0 0)
(0.106936 0 0)
(0.10689 0 0)
(0.106928 0 0)
(0.106901 0 0)
(0.106924 0 0)
(0.106925 0 0)
(0.106896 0 0)
(0.106919 0 0)
(0.106925 0 0)
(0.106895 0 0)
(0.106924 0 0)
(0.106933 0 0)
(0.106899 0 0)
(0.106918 0 0)
(0.106919 0 0)
(0.106923 0 0)
(0.106908 0 0)
(0.106924 0 0)
(0.106926 0 0)
(0.106905 0 0)
(0.106927 0 0)
(0.106929 0 0)
(0.106889 0 0)
(0.106925 0 0)
(0.106948 0 0)
(0.106896 0 0)
(0.106925 0 0)
(0.106924 0 0)
(0.106919 0 0)
(0.106914 0 0)
(0.106927 0 0)
(0.106928 0 0)
(0.106901 0 0)
(0.106938 0 0)
(0.106943 0 0)
(0.106889 0 0)
(0.106928 0 0)
(0.106947 0 0)
(0.106902 0 0)
(0.106929 0 0)
(0.106931 0 0)
(0.1069 0 0)
(0.106951 0 0)
(0.106931 0 0)
(0.106901 0 0)
(0.106945 0 0)
(0.10693 0 0)
(0.106925 0 0)
(0.106907 0 0)
(0.106931 0 0)
(0.106937 0 0)
(0.106926 0 0)
(0.106911 0 0)
(0.106941 0 0)
(0.106946 0 0)
(0.106892 0 0)
(0.106949 0 0)
(0.106941 0 0)
(0.106911 0 0)
(0.106938 0 0)
(0.106924 0 0)
(0.106933 0 0)
(0.106931 0 0)
(0.106923 0 0)
(0.10694 0 0)
(0.106925 0 0)
(0.106938 0 0)
(0.106923 0 0)
(0.106934 0 0)
(0.106927 0 0)
(0.106945 0 0)
(0.106936 0 0)
(0.106908 0 0)
(0.106951 0 0)
(0.106941 0 0)
(0.106925 0 0)
(0.106917 0 0)
(0.106952 0 0)
(0.106942 0 0)
(0.106911 0 0)
(0.106948 0 0)
(0.106957 0 0)
(0.106912 0 0)
(0.10693 0 0)
(0.106941 0 0)
(0.106939 0 0)
(0.106951 0 0)
(0.106931 0 0)
(0.106902 0 0)
(0.10695 0 0)
(0.106956 0 0)
(0.10691 0 0)
(0.10696 0 0)
(0.106943 0 0)
(0.10693 0 0)
(0.106916 0 0)
(0.106954 0 0)
(0.106949 0 0)
(0.106921 0 0)
(0.106953 0 0)
(0.106928 0 0)
(0.106932 0 0)
(0.106957 0 0)
(0.106945 0 0)
(0.106912 0 0)
(0.10695 0 0)
(0.106957 0 0)
(0.106915 0 0)
(0.106963 0 0)
(0.106941 0 0)
(0.106906 0 0)
(0.106969 0 0)
(0.106955 0 0)
(0.106921 0 0)
(0.106955 0 0)
(0.106945 0 0)
(0.106923 0 0)
(0.106959 0 0)
(0.106948 0 0)
(0.106923 0 0)
(0.106954 0 0)
(0.106959 0 0)
(0.106925 0 0)
(0.106944 0 0)
(0.10696 0 0)
(0.106931 0 0)
(0.10693 0 0)
(0.106957 0 0)
(0.106961 0 0)
(0.106919 0 0)
(0.106956 0 0)
(0.106957 0 0)
(0.106926 0 0)
(0.106961 0 0)
(0.106939 0 0)
(0.106932 0 0)
(0.106962 0 0)
(0.106953 0 0)
(0.106929 0 0)
(0.106947 0 0)
(0.10697 0 0)
(0.106919 0 0)
(0.106948 0 0)
(0.106954 0 0)
(0.106948 0 0)
(0.106952 0 0)
(0.106937 0 0)
(0.106954 0 0)
(0.106948 0 0)
(0.106948 0 0)
(0.106947 0 0)
(0.106948 0 0)
(0.106958 0 0)
(0.106941 0 0)
(0.106934 0 0)
(0.106968 0 0)
(0.106959 0 0)
(0.106928 0 0)
(0.106955 0 0)
(0.106946 0 0)
(0.106962 0 0)
(0.106953 0 0)
(0.106927 0 0)
(0.106969 0 0)
(0.106961 0 0)
(0.106931 0 0)
(0.106963 0 0)
(0.106958 0 0)
(0.106929 0 0)
(0.106965 0 0)
(0.106953 0 0)
(0.106956 0 0)
(0.106957 0 0)
(0.106932 0 0)
(0.106961 0 0)
(0.10696 0 0)
(0.106949 0 0)
(0.106938 0 0)
(0.106961 0 0)
(0.106968 0 0)
(0.106931 0 0)
(0.106969 0 0)
(0.106952 0 0)
(0.106953 0 0)
(0.106942 0 0)
(0.106955 0 0)
(0.106974 0 0)
(0.106934 0 0)
(0.106959 0 0)
(0.106953 0 0)
(0.106963 0 0)
(0.106963 0 0)
(0.10693 0 0)
(0.106967 0 0)
(0.106972 0 0)
(0.106938 0 0)
(0.106956 0 0)
(0.106954 0 0)
(0.106962 0 0)
(0.106967 0 0)
(0.106951 0 0)
(0.106937 0 0)
(0.106958 0 0)
(0.106967 0 0)
(0.106943 0 0)
(0.106969 0 0)
(0.106968 0 0)
(0.106938 0 0)
(0.106961 0 0)
(0.106955 0 0)
(0.10697 0 0)
(0.106961 0 0)
(0.106936 0 0)
(0.106971 0 0)
(0.10696 0 0)
(0.106941 0 0)
(0.106979 0 0)
(0.106959 0 0)
(0.106939 0 0)
(0.106977 0 0)
(0.106966 0 0)
(0.106943 0 0)
(0.106941 0 0)
(0.106977 0 0)
(0.106979 0 0)
(0.106933 0 0)
(0.106961 0 0)
(0.106972 0 0)
(0.106941 0 0)
(0.106966 0 0)
(0.106962 0 0)
(0.106961 0 0)
(0.106965 0 0)
(0.10695 0 0)
(0.106963 0 0)
(0.106968 0 0)
(0.106947 0 0)
(0.106967 0 0)
(0.106974 0 0)
(0.106952 0 0)
(0.106937 0 0)
(0.106961 0 0)
(0.106979 0 0)
(0.106954 0 0)
(0.106974 0 0)
(0.106946 0 0)
(0.106962 0 0)
(0.106969 0 0)
(0.106955 0 0)
(0.106961 0 0)
(0.106955 0 0)
(0.106969 0 0)
(0.10696 0 0)
(0.106969 0 0)
(0.106965 0 0)
(0.106943 0 0)
(0.106977 0 0)
(0.106959 0 0)
(0.106965 0 0)
(0.106961 0 0)
(0.106962 0 0)
(0.106971 0 0)
(0.106941 0 0)
(0.106973 0 0)
(0.106979 0 0)
(0.106943 0 0)
(0.106975 0 0)
(0.106965 0 0)
(0.106959 0 0)
(0.106946 0 0)
(0.106971 0 0)
(0.106989 0 0)
(0.106941 0 0)
(0.106962 0 0)
(0.106966 0 0)
(0.106973 0 0)
(0.106973 0 0)
(0.106942 0 0)
(0.106968 0 0)
(0.106965 0 0)
(0.106971 0 0)
(0.106975 0 0)
(0.106942 0 0)
(0.106972 0 0)
(0.106971 0 0)
(0.106966 0 0)
(0.106972 0 0)
(0.106949 0 0)
(0.106964 0 0)
(0.106972 0 0)
(0.106968 0 0)
(0.106973 0 0)
(0.106948 0 0)
(0.106967 0 0)
(0.106966 0 0)
(0.106979 0 0)
(0.106967 0 0)
(0.106949 0 0)
(0.106976 0 0)
(0.10697 0 0)
(0.106959 0 0)
(0.106962 0 0)
(0.10697 0 0)
(0.10697 0 0)
(0.106963 0 0)
(0.106971 0 0)
(0.106973 0 0)
(0.106951 0 0)
(0.106972 0 0)
(0.106976 0 0)
(0.106963 0 0)
(0.106952 0 0)
(0.106973 0 0)
(0.106967 0 0)
(0.10697 0 0)
(0.10697 0 0)
(0.106956 0 0)
(0.106984 0 0)
(0.10697 0 0)
(0.106947 0 0)
(0.106965 0 0)
(0.106977 0 0)
(0.106977 0 0)
(0.106967 0 0)
(0.106947 0 0)
(0.106985 0 0)
(0.106978 0 0)
(0.106964 0 0)
(0.106939 0 0)
(0.106987 0 0)
(0.106975 0 0)
(0.106949 0 0)
(0.106992 0 0)
(0.106955 0 0)
(0.10698 0 0)
(0.10697 0 0)
(0.106948 0 0)
(0.106988 0 0)
(0.106978 0 0)
(0.106945 0 0)
(0.106975 0 0)
(0.106991 0 0)
(0.106943 0 0)
(0.106979 0 0)
(0.10698 0 0)
(0.106945 0 0)
(0.106986 0 0)
(0.106978 0 0)
(0.106952 0 0)
(0.106974 0 0)
(0.106973 0 0)
(0.106973 0 0)
(0.106954 0 0)
(0.106973 0 0)
(0.106995 0 0)
(0.106959 0 0)
(0.106947 0 0)
(0.106974 0 0)
(0.10698 0 0)
(0.106953 0 0)
(0.106986 0 0)
(0.106979 0 0)
(0.106952 0 0)
(0.106973 0 0)
(0.106973 0 0)
(0.106975 0 0)
(0.106973 0 0)
(0.106968 0 0)
(0.106946 0 0)
(0.106976 0 0)
(0.10699 0 0)
(0.106949 0 0)
(0.106982 0 0)
(0.106966 0 0)
(0.106976 0 0)
(0.106977 0 0)
(0.106952 0 0)
(0.106979 0 0)
(0.106983 0 0)
(0.106949 0 0)
(0.10698 0 0)
(0.106984 0 0)
(0.106945 0 0)
(0.106983 0 0)
(0.106983 0 0)
(0.106968 0 0)
(0.10695 0 0)
(0.106968 0 0)
(0.106996 0 0)
(0.106976 0 0)
(0.10695 0 0)
(0.106966 0 0)
(0.106978 0 0)
(0.106974 0 0)
(0.10696 0 0)
(0.106983 0 0)
(0.106975 0 0)
(0.106959 0 0)
(0.106982 0 0)
(0.106972 0 0)
(0.10696 0 0)
(0.106973 0 0)
(0.106987 0 0)
(0.106947 0 0)
(0.106987 0 0)
(0.106982 0 0)
(0.106939 0 0)
(0.106995 0 0)
(0.10698 0 0)
(0.106939 0 0)
(0.106994 0 0)
(0.106982 0 0)
(0.10694 0 0)
(0.106993 0 0)
(0.106979 0 0)
(0.106939 0 0)
(0.106993 0 0)
(0.10698 0 0)
(0.106954 0 0)
(0.106983 0 0)
(0.106975 0 0)
(0.106949 0 0)
(0.106982 0 0)
(0.106978 0 0)
(0.106954 0 0)
(0.10699 0 0)
(0.10698 0 0)
(0.106951 0 0)
(0.106976 0 0)
(0.106974 0 0)
(0.106973 0 0)
(0.106962 0 0)
(0.106985 0 0)
(0.106983 0 0)
(0.106947 0 0)
(0.106978 0 0)
(0.106972 0 0)
(0.106978 0 0)
(0.106979 0 0)
(0.106951 0 0)
(0.10698 0 0)
(0.106974 0 0)
(0.106975 0 0)
(0.106978 0 0)
(0.106952 0 0)
(0.106978 0 0)
(0.106973 0 0)
(0.106974 0 0)
(0.106965 0 0)
(0.106988 0 0)
(0.106964 0 0)
(0.10697 0 0)
(0.106977 0 0)
)
;

boundaryField
{
    fixedWall
    {
        type            fixedValue;
        value           uniform (0 0 0);
    }
    outlet
    {
        type            pressureInletOutletVelocity;
        value           uniform (0.106977 0 0);
    }
    defaultFaces
    {
        type            empty;
    }
}


// ************************************************************************* //
