/*--------------------------------*- C++ -*----------------------------------*\
| =========                 |                                                 |
| \\      /  F ield         | OpenFOAM: The Open Source CFD Toolbox           |
|  \\    /   O peration     | Version:  2406                                  |
|   \\  /    A nd           | Website:  www.openfoam.com                      |
|    \\/     M anipulation  |                                                 |
\*---------------------------------------------------------------------------*/
FoamFile
{
    version     2.0;
    format      ascii;
    arch        "LSB;label=32;scalar=64";
    class       volScalarField;
    location    "6";
    object      O2;
}
// * * * * * * * * * * * * * * * * * * * * * * * * * * * * * * * * * * * * * //

dimensions      [0 0 0 0 0 0 0];

internalField   nonuniform List<scalar> 
1000
(
1.38873e-06
1.38566e-06
1.3802e-06
1.37282e-06
1.36383e-06
1.35347e-06
1.34193e-06
1.32935e-06
1.31586e-06
1.30155e-06
1.28651e-06
1.27083e-06
1.25456e-06
1.23777e-06
1.22052e-06
1.20285e-06
1.18481e-06
1.16644e-06
1.1478e-06
1.1289e-06
1.1098e-06
1.09052e-06
1.07111e-06
1.05159e-06
1.03201e-06
1.01239e-06
9.92773e-07
9.73183e-07
9.53655e-07
9.34219e-07
9.14907e-07
8.95747e-07
8.76769e-07
8.57999e-07
8.39463e-07
8.21188e-07
8.03195e-07
7.85508e-07
7.68146e-07
7.51128e-07
7.34471e-07
7.1819e-07
7.02298e-07
6.86806e-07
6.71726e-07
6.57063e-07
6.42826e-07
6.29018e-07
6.15642e-07
6.027e-07
5.90193e-07
5.78119e-07
5.66475e-07
5.55259e-07
5.44466e-07
5.3409e-07
5.24124e-07
5.14563e-07
5.05398e-07
4.9662e-07
4.88222e-07
4.80193e-07
4.72525e-07
4.65207e-07
4.58229e-07
4.51582e-07
4.45254e-07
4.39236e-07
4.33517e-07
4.28086e-07
4.22933e-07
4.18049e-07
4.13423e-07
4.09045e-07
4.04905e-07
4.00994e-07
3.97303e-07
3.93822e-07
3.90542e-07
3.87455e-07
3.84553e-07
3.81826e-07
3.79268e-07
3.7687e-07
3.74625e-07
3.72527e-07
3.70567e-07
3.68739e-07
3.67038e-07
3.65457e-07
3.63989e-07
3.6263e-07
3.61373e-07
3.60214e-07
3.59148e-07
3.5817e-07
3.57274e-07
3.56458e-07
3.55716e-07
3.55045e-07
3.54441e-07
3.53901e-07
3.5342e-07
3.52996e-07
3.52625e-07
3.52305e-07
3.52032e-07
3.51804e-07
3.51619e-07
3.51474e-07
3.51367e-07
3.51295e-07
3.51257e-07
3.5125e-07
3.51273e-07
3.51324e-07
3.51401e-07
3.51503e-07
3.51628e-07
3.51775e-07
3.51942e-07
3.52129e-07
3.52334e-07
3.52556e-07
3.52794e-07
3.53047e-07
3.53314e-07
3.53594e-07
3.53887e-07
3.54191e-07
3.54507e-07
3.54833e-07
3.55168e-07
3.55512e-07
3.55865e-07
3.56226e-07
3.56595e-07
3.5697e-07
3.57352e-07
3.5774e-07
3.58135e-07
3.58534e-07
3.58939e-07
3.59349e-07
3.59763e-07
3.60182e-07
3.60605e-07
3.61031e-07
3.61462e-07
3.61896e-07
3.62333e-07
3.62773e-07
3.63217e-07
3.63663e-07
3.64112e-07
3.64563e-07
3.65017e-07
3.65473e-07
3.65932e-07
3.66393e-07
3.66856e-07
3.67321e-07
3.67788e-07
3.68257e-07
3.68728e-07
3.692e-07
3.69675e-07
3.70151e-07
3.70629e-07
3.71108e-07
3.71589e-07
3.72072e-07
3.72556e-07
3.73042e-07
3.7353e-07
3.74019e-07
3.74509e-07
3.75e-07
3.7549e-07
3.75985e-07
3.76481e-07
3.76979e-07
3.77479e-07
3.7798e-07
3.78482e-07
3.78986e-07
3.79491e-07
3.79997e-07
3.80505e-07
3.81014e-07
3.81525e-07
3.82036e-07
3.8255e-07
3.83065e-07
3.83581e-07
3.84098e-07
3.84617e-07
3.85137e-07
3.85659e-07
3.86182e-07
3.86707e-07
3.87233e-07
3.8776e-07
3.88289e-07
3.88819e-07
3.8935e-07
3.89883e-07
3.90417e-07
3.90953e-07
3.9149e-07
3.92029e-07
3.92569e-07
3.93111e-07
3.93653e-07
3.94198e-07
3.94744e-07
3.95291e-07
3.95839e-07
3.9639e-07
3.96941e-07
3.97494e-07
3.98049e-07
3.98605e-07
3.99162e-07
3.99721e-07
4.00281e-07
4.00843e-07
4.01406e-07
4.01971e-07
4.02537e-07
4.03104e-07
4.03674e-07
4.04244e-07
4.04816e-07
4.0539e-07
4.05965e-07
4.06542e-07
4.0712e-07
4.07699e-07
4.0828e-07
4.08863e-07
4.09447e-07
4.10033e-07
4.1062e-07
4.11208e-07
4.11799e-07
4.1239e-07
4.12984e-07
4.13578e-07
4.14175e-07
4.14773e-07
4.15372e-07
4.15973e-07
4.16576e-07
4.1718e-07
4.17786e-07
4.18393e-07
4.19002e-07
4.19613e-07
4.20225e-07
4.20839e-07
4.21454e-07
4.22071e-07
4.2269e-07
4.2331e-07
4.23932e-07
4.24555e-07
4.25181e-07
4.25808e-07
4.26436e-07
4.27067e-07
4.27699e-07
4.28332e-07
4.28968e-07
4.29605e-07
4.30244e-07
4.30884e-07
4.31527e-07
4.32171e-07
4.32816e-07
4.33464e-07
4.34114e-07
4.34765e-07
4.35418e-07
4.36073e-07
4.36729e-07
4.37388e-07
4.38048e-07
4.38711e-07
4.39375e-07
4.40041e-07
4.40709e-07
4.41378e-07
4.4205e-07
4.42724e-07
4.43399e-07
4.44077e-07
4.44756e-07
4.45437e-07
4.46115e-07
4.468e-07
4.47488e-07
4.48177e-07
4.48869e-07
4.49562e-07
4.50258e-07
4.50955e-07
4.51655e-07
4.52357e-07
4.53061e-07
4.53767e-07
4.54475e-07
4.55185e-07
4.55897e-07
4.56611e-07
4.57328e-07
4.58046e-07
4.58767e-07
4.5949e-07
4.60215e-07
4.60942e-07
4.61672e-07
4.62403e-07
4.63137e-07
4.63873e-07
4.64612e-07
4.65352e-07
4.66095e-07
4.6684e-07
4.67588e-07
4.68337e-07
4.69089e-07
4.69843e-07
4.706e-07
4.71359e-07
4.7212e-07
4.72884e-07
4.7365e-07
4.74418e-07
4.75189e-07
4.75962e-07
4.76737e-07
4.77515e-07
4.78296e-07
4.79078e-07
4.79864e-07
4.80651e-07
4.81442e-07
4.82235e-07
4.8303e-07
4.83828e-07
4.84628e-07
4.85431e-07
4.86237e-07
4.87045e-07
4.87856e-07
4.88669e-07
4.89486e-07
4.90305e-07
4.91126e-07
4.91951e-07
4.92778e-07
4.93608e-07
4.9444e-07
4.95276e-07
4.96114e-07
4.96955e-07
4.97799e-07
4.98646e-07
4.99496e-07
5.00349e-07
5.01205e-07
5.02064e-07
5.02925e-07
5.0379e-07
5.04658e-07
5.05529e-07
5.06403e-07
5.07281e-07
5.08161e-07
5.09045e-07
5.09932e-07
5.10822e-07
5.11715e-07
5.12612e-07
5.13512e-07
5.14415e-07
5.15321e-07
5.16231e-07
5.17145e-07
5.18061e-07
5.18981e-07
5.19905e-07
5.20832e-07
5.21762e-07
5.22696e-07
5.23633e-07
5.24574e-07
5.25518e-07
5.26459e-07
5.2741e-07
5.28366e-07
5.29325e-07
5.30287e-07
5.31254e-07
5.32224e-07
5.33197e-07
5.34175e-07
5.35156e-07
5.3614e-07
5.37129e-07
5.38121e-07
5.39117e-07
5.40116e-07
5.41119e-07
5.42127e-07
5.43137e-07
5.44152e-07
5.4517e-07
5.46192e-07
5.47218e-07
5.48248e-07
5.49281e-07
5.50319e-07
5.5136e-07
5.52405e-07
5.53454e-07
5.54506e-07
5.55563e-07
5.56623e-07
5.57688e-07
5.58756e-07
5.59828e-07
5.60904e-07
5.61984e-07
5.63069e-07
5.64157e-07
5.65249e-07
5.66345e-07
5.67445e-07
5.6855e-07
5.69658e-07
5.70771e-07
5.71887e-07
5.73008e-07
5.74125e-07
5.75246e-07
5.7638e-07
5.77518e-07
5.78661e-07
5.79807e-07
5.80959e-07
5.82114e-07
5.83274e-07
5.84439e-07
5.85608e-07
5.86781e-07
5.8796e-07
5.89143e-07
5.9033e-07
5.91522e-07
5.92719e-07
5.93921e-07
5.95128e-07
5.96339e-07
5.97556e-07
5.98777e-07
6.00003e-07
6.01235e-07
6.02471e-07
6.03713e-07
6.04959e-07
6.06211e-07
6.07468e-07
6.08731e-07
6.09998e-07
6.11271e-07
6.1255e-07
6.13834e-07
6.15123e-07
6.16418e-07
6.17718e-07
6.19024e-07
6.20335e-07
6.21652e-07
6.22975e-07
6.24303e-07
6.25637e-07
6.26977e-07
6.28323e-07
6.29675e-07
6.31032e-07
6.32395e-07
6.33765e-07
6.3514e-07
6.36521e-07
6.37908e-07
6.39302e-07
6.40701e-07
6.42107e-07
6.43519e-07
6.44937e-07
6.46362e-07
6.47793e-07
6.4923e-07
6.50674e-07
6.52124e-07
6.5358e-07
6.55043e-07
6.56513e-07
6.5799e-07
6.59473e-07
6.60962e-07
6.62459e-07
6.63962e-07
6.65465e-07
6.66971e-07
6.68495e-07
6.70026e-07
6.71563e-07
6.73107e-07
6.74659e-07
6.76217e-07
6.77783e-07
6.79356e-07
6.80936e-07
6.82523e-07
6.84118e-07
6.85721e-07
6.87331e-07
6.88948e-07
6.90574e-07
6.92207e-07
6.93848e-07
6.95497e-07
6.97154e-07
6.98818e-07
7.00491e-07
7.02172e-07
7.03862e-07
7.05559e-07
7.07265e-07
7.0898e-07
7.10702e-07
7.12434e-07
7.14174e-07
7.15923e-07
7.1768e-07
7.19446e-07
7.21222e-07
7.23006e-07
7.24799e-07
7.26601e-07
7.28412e-07
7.30233e-07
7.32063e-07
7.33902e-07
7.3575e-07
7.37608e-07
7.39475e-07
7.41352e-07
7.43238e-07
7.45134e-07
7.4704e-07
7.48956e-07
7.50881e-07
7.52816e-07
7.54761e-07
7.56716e-07
7.58681e-07
7.60655e-07
7.62641e-07
7.64636e-07
7.66642e-07
7.68649e-07
7.70659e-07
7.72696e-07
7.74742e-07
7.76798e-07
7.78865e-07
7.80943e-07
7.83031e-07
7.85129e-07
7.87239e-07
7.8936e-07
7.91491e-07
7.93634e-07
7.95788e-07
7.97953e-07
8.0013e-07
8.02318e-07
8.04517e-07
8.06729e-07
8.08952e-07
8.11187e-07
8.13434e-07
8.15694e-07
8.17966e-07
8.2025e-07
8.22547e-07
8.24856e-07
8.27179e-07
8.29514e-07
8.31863e-07
8.34225e-07
8.36601e-07
8.3899e-07
8.41393e-07
8.4381e-07
8.46241e-07
8.48686e-07
8.51146e-07
8.5362e-07
8.56109e-07
8.58613e-07
8.61132e-07
8.63666e-07
8.66215e-07
8.6878e-07
8.71361e-07
8.73957e-07
8.7657e-07
8.79199e-07
8.81845e-07
8.84491e-07
8.87151e-07
8.89848e-07
8.92562e-07
8.95291e-07
8.98038e-07
9.00801e-07
9.03581e-07
9.06378e-07
9.09193e-07
9.12026e-07
9.14876e-07
9.17744e-07
9.2063e-07
9.23534e-07
9.26457e-07
9.29397e-07
9.32357e-07
9.35334e-07
9.3833e-07
9.41346e-07
9.4438e-07
9.47433e-07
9.50505e-07
9.53597e-07
9.56709e-07
9.5984e-07
9.62991e-07
9.66163e-07
9.69354e-07
9.72566e-07
9.75799e-07
9.79053e-07
9.82328e-07
9.85625e-07
9.88943e-07
9.92283e-07
9.95646e-07
9.99031e-07
1.00244e-06
1.00587e-06
1.00933e-06
1.0128e-06
1.01631e-06
1.01984e-06
1.02339e-06
1.02697e-06
1.03057e-06
1.0342e-06
1.03785e-06
1.04154e-06
1.04525e-06
1.04898e-06
1.05275e-06
1.05654e-06
1.06036e-06
1.06421e-06
1.06809e-06
1.07199e-06
1.07593e-06
1.0799e-06
1.0839e-06
1.08792e-06
1.09198e-06
1.09607e-06
1.10019e-06
1.10435e-06
1.10853e-06
1.11275e-06
1.117e-06
1.12128e-06
1.1256e-06
1.12995e-06
1.13434e-06
1.13876e-06
1.14321e-06
1.1477e-06
1.15222e-06
1.15678e-06
1.16138e-06
1.16601e-06
1.17068e-06
1.17538e-06
1.18013e-06
1.18491e-06
1.18973e-06
1.19458e-06
1.19948e-06
1.20441e-06
1.20939e-06
1.2144e-06
1.21944e-06
1.2245e-06
1.22963e-06
1.23481e-06
1.24002e-06
1.24528e-06
1.25058e-06
1.25593e-06
1.26131e-06
1.26675e-06
1.27222e-06
1.27775e-06
1.28331e-06
1.28893e-06
1.29459e-06
1.3003e-06
1.30606e-06
1.31186e-06
1.31772e-06
1.32363e-06
1.32958e-06
1.33559e-06
1.34166e-06
1.34777e-06
1.35394e-06
1.36017e-06
1.36645e-06
1.37279e-06
1.37919e-06
1.38565e-06
1.39217e-06
1.39875e-06
1.40539e-06
1.4121e-06
1.41887e-06
1.4257e-06
1.43261e-06
1.43958e-06
1.44662e-06
1.45374e-06
1.46092e-06
1.46818e-06
1.47551e-06
1.48292e-06
1.4904e-06
1.49797e-06
1.50561e-06
1.51333e-06
1.52114e-06
1.52902e-06
1.53698e-06
1.54498e-06
1.55312e-06
1.56136e-06
1.56968e-06
1.57809e-06
1.5866e-06
1.59519e-06
1.60389e-06
1.61268e-06
1.62157e-06
1.63055e-06
1.63964e-06
1.64883e-06
1.65813e-06
1.66753e-06
1.67704e-06
1.68665e-06
1.69638e-06
1.70623e-06
1.71618e-06
1.72626e-06
1.73646e-06
1.74677e-06
1.75721e-06
1.76778e-06
1.77848e-06
1.78931e-06
1.80027e-06
1.81137e-06
1.8226e-06
1.83398e-06
1.8455e-06
1.85717e-06
1.86898e-06
1.88095e-06
1.89307e-06
1.90535e-06
1.91778e-06
1.93038e-06
1.94315e-06
1.95608e-06
1.96919e-06
1.98247e-06
1.99592e-06
2.00956e-06
2.02338e-06
2.03739e-06
2.05158e-06
2.06598e-06
2.08056e-06
2.09536e-06
2.11035e-06
2.12556e-06
2.14098e-06
2.15662e-06
2.17248e-06
2.18849e-06
2.20468e-06
2.22124e-06
2.23805e-06
2.2551e-06
2.2724e-06
2.28997e-06
2.3078e-06
2.32591e-06
2.34429e-06
2.36297e-06
2.38193e-06
2.4012e-06
2.42078e-06
2.44067e-06
2.46089e-06
2.48144e-06
2.50233e-06
2.52357e-06
2.54517e-06
2.56714e-06
2.58949e-06
2.61222e-06
2.63535e-06
2.65888e-06
2.68284e-06
2.70722e-06
2.73204e-06
2.75732e-06
2.78307e-06
2.80929e-06
2.83601e-06
2.86324e-06
2.89099e-06
2.91928e-06
2.94814e-06
2.97757e-06
3.00759e-06
3.03823e-06
3.0695e-06
3.10137e-06
3.13372e-06
3.16702e-06
3.20103e-06
3.2358e-06
3.27133e-06
3.30768e-06
3.34485e-06
3.38287e-06
3.42178e-06
3.4616e-06
3.50235e-06
3.54408e-06
3.58681e-06
3.63058e-06
3.67541e-06
3.72134e-06
3.76841e-06
3.81665e-06
3.86611e-06
3.91682e-06
3.96884e-06
4.0222e-06
4.07697e-06
4.13319e-06
4.19092e-06
4.24989e-06
4.31037e-06
4.37302e-06
4.43745e-06
4.50375e-06
4.57201e-06
4.64232e-06
4.7148e-06
4.78955e-06
4.8667e-06
4.94638e-06
5.02873e-06
5.11388e-06
5.20191e-06
5.29239e-06
5.3868e-06
5.48469e-06
5.58628e-06
5.69177e-06
5.80135e-06
5.91527e-06
6.03374e-06
6.15704e-06
6.28543e-06
6.41921e-06
6.55869e-06
6.70422e-06
6.85617e-06
7.01495e-06
7.18099e-06
7.35477e-06
7.53682e-06
7.72772e-06
7.92811e-06
8.13773e-06
8.35747e-06
8.59056e-06
8.83633e-06
9.09591e-06
9.37055e-06
9.66164e-06
9.97076e-06
1.02997e-05
1.06504e-05
1.10252e-05
1.14266e-05
1.18575e-05
1.23213e-05
1.28217e-05
1.33633e-05
1.39514e-05
1.45922e-05
1.52883e-05
1.60592e-05
1.69107e-05
1.78564e-05
1.89131e-05
2.01014e-05
2.14463e-05
2.29785e-05
2.47359e-05
2.67661e-05
2.91304e-05
3.19089e-05
3.521e-05
3.91832e-05
4.4041e-05
5.00937e-05
5.78159e-05
6.79826e-05
8.19597e-05
0.000102317
0.000134154
0.000188252
0.000289657
0.000505245
0.00105692
0.00280042
0.00939341
0.0503876
0.0767244
0.0899506
0.0965558
0.0998524
0.101498
0.102319
0.102729
0.102934
0.103037
0.103088
0.103113
0.103126
0.103133
0.103136
0.103137
0.103138
0.103139
0.103139
0.103139
0.103139
0.103139
0.103139
0.103139
0.103139
0.103139
0.103139
0.103139
0.103139
0.103139
0.103139
0.103139
0.103139
)
;

boundaryField
{
    fixedWall
    {
        type            zeroGradient;
    }
    outlet
    {
        type            inletOutlet;
        inletValue      uniform 0;
        value           uniform 0.103139;
    }
    defaultFaces
    {
        type            empty;
    }
}


// ************************************************************************* //
