/*--------------------------------*- C++ -*----------------------------------*\
| =========                 |                                                 |
| \\      /  F ield         | OpenFOAM: The Open Source CFD Toolbox           |
|  \\    /   O peration     | Version:  2406                                  |
|   \\  /    A nd           | Website:  www.openfoam.com                      |
|    \\/     M anipulation  |                                                 |
\*---------------------------------------------------------------------------*/
FoamFile
{
    version     2.0;
    format      ascii;
    arch        "LSB;label=32;scalar=64";
    class       surfaceScalarField;
    location    "6";
    object      phi;
}
// * * * * * * * * * * * * * * * * * * * * * * * * * * * * * * * * * * * * * //

dimensions      [1 0 -1 0 0 0 0];

oriented        oriented;

internalField   nonuniform List<scalar> 
999
(
-4.07265e-08
-1.28762e-07
-2.42528e-07
-3.7064e-07
-5.06648e-07
-6.46699e-07
-7.88406e-07
-9.30256e-07
-1.07127e-06
-1.21079e-06
-1.34841e-06
-1.48386e-06
-1.61695e-06
-1.74758e-06
-1.87569e-06
-2.00126e-06
-2.12428e-06
-2.24477e-06
-2.36273e-06
-2.47822e-06
-2.59125e-06
-2.70188e-06
-2.81013e-06
-2.91605e-06
-3.01967e-06
-3.12105e-06
-3.22023e-06
-3.31723e-06
-3.4121e-06
-3.50487e-06
-3.59559e-06
-3.68429e-06
-3.77101e-06
-3.85577e-06
-3.93861e-06
-4.01957e-06
-4.09867e-06
-4.17594e-06
-4.25142e-06
-4.32514e-06
-4.39711e-06
-4.46737e-06
-4.53595e-06
-4.60288e-06
-4.66817e-06
-4.73186e-06
-4.79397e-06
-4.85452e-06
-4.91355e-06
-4.97107e-06
-5.02711e-06
-5.08169e-06
-5.13485e-06
-5.18659e-06
-5.23694e-06
-5.28594e-06
-5.33359e-06
-5.37992e-06
-5.42496e-06
-5.46873e-06
-5.51125e-06
-5.55255e-06
-5.59264e-06
-5.63155e-06
-5.66929e-06
-5.70591e-06
-5.7414e-06
-5.77581e-06
-5.80914e-06
-5.84142e-06
-5.87267e-06
-5.90292e-06
-5.93218e-06
-5.96048e-06
-5.98784e-06
-6.01427e-06
-6.03981e-06
-6.06447e-06
-6.08827e-06
-6.11123e-06
-6.13338e-06
-6.15473e-06
-6.1753e-06
-6.19512e-06
-6.2142e-06
-6.23257e-06
-6.25024e-06
-6.26723e-06
-6.28357e-06
-6.29926e-06
-6.31434e-06
-6.32881e-06
-6.3427e-06
-6.35602e-06
-6.36879e-06
-6.38103e-06
-6.39276e-06
-6.40399e-06
-6.41474e-06
-6.42502e-06
-6.43485e-06
-6.44425e-06
-6.45323e-06
-6.4618e-06
-6.46999e-06
-6.4778e-06
-6.48525e-06
-6.49235e-06
-6.49911e-06
-6.50556e-06
-6.51189e-06
-6.51752e-06
-6.52305e-06
-6.52838e-06
-6.53339e-06
-6.53818e-06
-6.54274e-06
-6.54707e-06
-6.55117e-06
-6.55506e-06
-6.55875e-06
-6.56225e-06
-6.56557e-06
-6.56871e-06
-6.57168e-06
-6.5745e-06
-6.57717e-06
-6.5797e-06
-6.58209e-06
-6.58435e-06
-6.58649e-06
-6.58851e-06
-6.59042e-06
-6.59223e-06
-6.59393e-06
-6.59555e-06
-6.59707e-06
-6.59851e-06
-6.59987e-06
-6.60116e-06
-6.60238e-06
-6.60353e-06
-6.60461e-06
-6.60564e-06
-6.60661e-06
-6.60753e-06
-6.6084e-06
-6.60922e-06
-6.61e-06
-6.61074e-06
-6.61144e-06
-6.6121e-06
-6.61273e-06
-6.61333e-06
-6.6139e-06
-6.61444e-06
-6.61496e-06
-6.61545e-06
-6.61592e-06
-6.61636e-06
-6.61679e-06
-6.6172e-06
-6.6176e-06
-6.61797e-06
-6.61833e-06
-6.61868e-06
-6.61902e-06
-6.61934e-06
-6.61966e-06
-6.61996e-06
-6.62025e-06
-6.62054e-06
-6.62081e-06
-6.62108e-06
-6.62135e-06
-6.6216e-06
-6.62185e-06
-6.6221e-06
-6.62234e-06
-6.62257e-06
-6.62281e-06
-6.62303e-06
-6.62326e-06
-6.62348e-06
-6.6237e-06
-6.62391e-06
-6.62412e-06
-6.62433e-06
-6.62454e-06
-6.62475e-06
-6.62495e-06
-6.62516e-06
-6.62536e-06
-6.62556e-06
-6.62576e-06
-6.62595e-06
-6.62615e-06
-6.62634e-06
-6.62654e-06
-6.62673e-06
-6.62692e-06
-6.62711e-06
-6.62731e-06
-6.6275e-06
-6.62769e-06
-6.62788e-06
-6.62806e-06
-6.62825e-06
-6.62844e-06
-6.62863e-06
-6.62881e-06
-6.629e-06
-6.62919e-06
-6.62937e-06
-6.62956e-06
-6.62974e-06
-6.62992e-06
-6.63011e-06
-6.63029e-06
-6.63048e-06
-6.63066e-06
-6.63084e-06
-6.63102e-06
-6.6312e-06
-6.63139e-06
-6.63157e-06
-6.63175e-06
-6.63193e-06
-6.63211e-06
-6.63229e-06
-6.63246e-06
-6.63264e-06
-6.63282e-06
-6.633e-06
-6.63318e-06
-6.63335e-06
-6.63353e-06
-6.63371e-06
-6.63388e-06
-6.63406e-06
-6.63424e-06
-6.63441e-06
-6.63459e-06
-6.63476e-06
-6.63494e-06
-6.63511e-06
-6.63528e-06
-6.63546e-06
-6.63563e-06
-6.6358e-06
-6.63598e-06
-6.63615e-06
-6.63632e-06
-6.63649e-06
-6.63666e-06
-6.63684e-06
-6.63701e-06
-6.63718e-06
-6.63735e-06
-6.63752e-06
-6.63769e-06
-6.63786e-06
-6.63803e-06
-6.6382e-06
-6.63837e-06
-6.63854e-06
-6.6387e-06
-6.63887e-06
-6.63904e-06
-6.63921e-06
-6.63938e-06
-6.63955e-06
-6.63972e-06
-6.63989e-06
-6.64005e-06
-6.64022e-06
-6.64039e-06
-6.64056e-06
-6.64073e-06
-6.64089e-06
-6.64106e-06
-6.64123e-06
-6.64139e-06
-6.64156e-06
-6.64173e-06
-6.6419e-06
-6.64206e-06
-6.64223e-06
-6.6424e-06
-6.64257e-06
-6.64273e-06
-6.6429e-06
-6.64307e-06
-6.64324e-06
-6.6434e-06
-6.64357e-06
-6.64374e-06
-6.64391e-06
-6.64407e-06
-6.64424e-06
-6.64441e-06
-6.64458e-06
-6.64474e-06
-6.64491e-06
-6.64508e-06
-6.64525e-06
-6.64542e-06
-6.64558e-06
-6.64575e-06
-6.64592e-06
-6.64609e-06
-6.64626e-06
-6.64643e-06
-6.64659e-06
-6.64676e-06
-6.64693e-06
-6.6471e-06
-6.64727e-06
-6.64744e-06
-6.64761e-06
-6.64778e-06
-6.64795e-06
-6.64812e-06
-6.64829e-06
-6.64846e-06
-6.64863e-06
-6.6488e-06
-6.64897e-06
-6.64914e-06
-6.64931e-06
-6.64948e-06
-6.64965e-06
-6.64983e-06
-6.65e-06
-6.65017e-06
-6.65034e-06
-6.65052e-06
-6.65069e-06
-6.65086e-06
-6.65104e-06
-6.65121e-06
-6.65139e-06
-6.65156e-06
-6.65174e-06
-6.65191e-06
-6.65209e-06
-6.65227e-06
-6.65244e-06
-6.65262e-06
-6.6528e-06
-6.65297e-06
-6.65315e-06
-6.65333e-06
-6.65351e-06
-6.65369e-06
-6.65387e-06
-6.65405e-06
-6.65423e-06
-6.65441e-06
-6.6546e-06
-6.65478e-06
-6.65496e-06
-6.65515e-06
-6.65533e-06
-6.65552e-06
-6.65571e-06
-6.65589e-06
-6.65608e-06
-6.65627e-06
-6.65646e-06
-6.65664e-06
-6.65683e-06
-6.65702e-06
-6.65721e-06
-6.65741e-06
-6.6576e-06
-6.65779e-06
-6.65798e-06
-6.65818e-06
-6.65837e-06
-6.65856e-06
-6.65876e-06
-6.65895e-06
-6.65915e-06
-6.65935e-06
-6.65954e-06
-6.65974e-06
-6.65994e-06
-6.66013e-06
-6.66033e-06
-6.66053e-06
-6.66073e-06
-6.66093e-06
-6.66112e-06
-6.66132e-06
-6.66152e-06
-6.66172e-06
-6.66192e-06
-6.66212e-06
-6.66232e-06
-6.66252e-06
-6.66271e-06
-6.66291e-06
-6.66311e-06
-6.66331e-06
-6.66351e-06
-6.6637e-06
-6.6639e-06
-6.6641e-06
-6.66429e-06
-6.66449e-06
-6.66468e-06
-6.66488e-06
-6.66507e-06
-6.66527e-06
-6.66546e-06
-6.66566e-06
-6.66585e-06
-6.66604e-06
-6.66623e-06
-6.66643e-06
-6.66662e-06
-6.66681e-06
-6.667e-06
-6.66719e-06
-6.66738e-06
-6.66756e-06
-6.66775e-06
-6.66794e-06
-6.66813e-06
-6.66831e-06
-6.6685e-06
-6.66869e-06
-6.66887e-06
-6.66906e-06
-6.66924e-06
-6.66943e-06
-6.66961e-06
-6.6698e-06
-6.66998e-06
-6.67017e-06
-6.67035e-06
-6.67053e-06
-6.67072e-06
-6.6709e-06
-6.67109e-06
-6.67127e-06
-6.67145e-06
-6.67164e-06
-6.67182e-06
-6.67201e-06
-6.67219e-06
-6.67238e-06
-6.67256e-06
-6.67275e-06
-6.67294e-06
-6.67312e-06
-6.67331e-06
-6.6735e-06
-6.67369e-06
-6.67388e-06
-6.67406e-06
-6.67425e-06
-6.67444e-06
-6.67463e-06
-6.67482e-06
-6.67501e-06
-6.67521e-06
-6.6754e-06
-6.67559e-06
-6.67578e-06
-6.67598e-06
-6.67617e-06
-6.67636e-06
-6.67656e-06
-6.67675e-06
-6.67695e-06
-6.67714e-06
-6.67734e-06
-6.67754e-06
-6.67773e-06
-6.67793e-06
-6.67813e-06
-6.67832e-06
-6.67852e-06
-6.67872e-06
-6.67892e-06
-6.67912e-06
-6.67931e-06
-6.67951e-06
-6.67971e-06
-6.67991e-06
-6.68011e-06
-6.68031e-06
-6.68051e-06
-6.68071e-06
-6.68091e-06
-6.68111e-06
-6.68131e-06
-6.6815e-06
-6.6817e-06
-6.6819e-06
-6.6821e-06
-6.6823e-06
-6.6825e-06
-6.6827e-06
-6.6829e-06
-6.6831e-06
-6.6833e-06
-6.6835e-06
-6.6837e-06
-6.6839e-06
-6.6841e-06
-6.68431e-06
-6.68451e-06
-6.68471e-06
-6.68491e-06
-6.68511e-06
-6.68531e-06
-6.68551e-06
-6.68572e-06
-6.68592e-06
-6.68612e-06
-6.68633e-06
-6.68653e-06
-6.68673e-06
-6.68694e-06
-6.68714e-06
-6.68735e-06
-6.68755e-06
-6.68776e-06
-6.68796e-06
-6.68817e-06
-6.68837e-06
-6.68858e-06
-6.68878e-06
-6.68899e-06
-6.6892e-06
-6.6894e-06
-6.68961e-06
-6.68982e-06
-6.69003e-06
-6.69023e-06
-6.69044e-06
-6.69065e-06
-6.69086e-06
-6.69106e-06
-6.69127e-06
-6.69148e-06
-6.69168e-06
-6.69189e-06
-6.6921e-06
-6.6923e-06
-6.69251e-06
-6.69271e-06
-6.69292e-06
-6.69312e-06
-6.69332e-06
-6.69353e-06
-6.69373e-06
-6.69393e-06
-6.69413e-06
-6.69433e-06
-6.69453e-06
-6.69473e-06
-6.69493e-06
-6.69512e-06
-6.69532e-06
-6.69551e-06
-6.69571e-06
-6.6959e-06
-6.6961e-06
-6.69629e-06
-6.69648e-06
-6.69668e-06
-6.69687e-06
-6.69706e-06
-6.69725e-06
-6.69744e-06
-6.69763e-06
-6.69782e-06
-6.69801e-06
-6.6982e-06
-6.69839e-06
-6.69858e-06
-6.69877e-06
-6.69896e-06
-6.69915e-06
-6.69934e-06
-6.69953e-06
-6.69973e-06
-6.69992e-06
-6.70012e-06
-6.70031e-06
-6.70051e-06
-6.70071e-06
-6.7009e-06
-6.7011e-06
-6.70131e-06
-6.70151e-06
-6.70171e-06
-6.70192e-06
-6.70212e-06
-6.70233e-06
-6.70254e-06
-6.70275e-06
-6.70297e-06
-6.70318e-06
-6.7034e-06
-6.70361e-06
-6.70383e-06
-6.70405e-06
-6.70427e-06
-6.70449e-06
-6.70471e-06
-6.70494e-06
-6.70516e-06
-6.70539e-06
-6.70561e-06
-6.70584e-06
-6.70606e-06
-6.70629e-06
-6.70652e-06
-6.70675e-06
-6.70697e-06
-6.7072e-06
-6.70743e-06
-6.70765e-06
-6.70788e-06
-6.7081e-06
-6.70833e-06
-6.70855e-06
-6.70877e-06
-6.709e-06
-6.70922e-06
-6.70944e-06
-6.70966e-06
-6.70987e-06
-6.71009e-06
-6.71031e-06
-6.71052e-06
-6.71073e-06
-6.71095e-06
-6.71116e-06
-6.71137e-06
-6.71158e-06
-6.71179e-06
-6.712e-06
-6.7122e-06
-6.71241e-06
-6.71262e-06
-6.71283e-06
-6.71303e-06
-6.71324e-06
-6.71345e-06
-6.71366e-06
-6.71387e-06
-6.71407e-06
-6.71428e-06
-6.7145e-06
-6.71471e-06
-6.71492e-06
-6.71513e-06
-6.71535e-06
-6.71556e-06
-6.71578e-06
-6.716e-06
-6.71622e-06
-6.71644e-06
-6.71666e-06
-6.71689e-06
-6.71712e-06
-6.71734e-06
-6.71757e-06
-6.7178e-06
-6.71803e-06
-6.71827e-06
-6.7185e-06
-6.71873e-06
-6.71897e-06
-6.7192e-06
-6.71944e-06
-6.71968e-06
-6.71992e-06
-6.72015e-06
-6.72039e-06
-6.72063e-06
-6.72086e-06
-6.7211e-06
-6.72133e-06
-6.72157e-06
-6.7218e-06
-6.72203e-06
-6.72226e-06
-6.72249e-06
-6.72272e-06
-6.72294e-06
-6.72316e-06
-6.72338e-06
-6.7236e-06
-6.72382e-06
-6.72403e-06
-6.72425e-06
-6.72446e-06
-6.72466e-06
-6.72487e-06
-6.72507e-06
-6.72527e-06
-6.72546e-06
-6.72566e-06
-6.72585e-06
-6.72604e-06
-6.72622e-06
-6.72641e-06
-6.72659e-06
-6.72677e-06
-6.72695e-06
-6.72712e-06
-6.7273e-06
-6.72747e-06
-6.72764e-06
-6.72781e-06
-6.72798e-06
-6.72815e-06
-6.72831e-06
-6.72848e-06
-6.72865e-06
-6.72882e-06
-6.72899e-06
-6.72916e-06
-6.72933e-06
-6.7295e-06
-6.72968e-06
-6.72985e-06
-6.73003e-06
-6.73021e-06
-6.7304e-06
-6.73059e-06
-6.73078e-06
-6.73097e-06
-6.73117e-06
-6.73137e-06
-6.73158e-06
-6.73179e-06
-6.73201e-06
-6.73223e-06
-6.73245e-06
-6.73268e-06
-6.73292e-06
-6.73315e-06
-6.7334e-06
-6.73364e-06
-6.73389e-06
-6.73415e-06
-6.73441e-06
-6.73467e-06
-6.73493e-06
-6.7352e-06
-6.73547e-06
-6.73575e-06
-6.73602e-06
-6.7363e-06
-6.73658e-06
-6.73686e-06
-6.73714e-06
-6.73742e-06
-6.73771e-06
-6.73799e-06
-6.73827e-06
-6.73855e-06
-6.73883e-06
-6.73911e-06
-6.73939e-06
-6.73967e-06
-6.73995e-06
-6.74022e-06
-6.7405e-06
-6.74077e-06
-6.74105e-06
-6.74132e-06
-6.74159e-06
-6.74185e-06
-6.74212e-06
-6.74239e-06
-6.74265e-06
-6.74291e-06
-6.74317e-06
-6.74343e-06
-6.74369e-06
-6.74395e-06
-6.7442e-06
-6.74445e-06
-6.7447e-06
-6.74495e-06
-6.7452e-06
-6.74544e-06
-6.74568e-06
-6.74592e-06
-6.74615e-06
-6.74638e-06
-6.74661e-06
-6.74683e-06
-6.74705e-06
-6.74726e-06
-6.74747e-06
-6.74767e-06
-6.74787e-06
-6.74806e-06
-6.74825e-06
-6.74843e-06
-6.7486e-06
-6.74877e-06
-6.74894e-06
-6.7491e-06
-6.74926e-06
-6.74941e-06
-6.74956e-06
-6.7497e-06
-6.74984e-06
-6.74998e-06
-6.75012e-06
-6.75026e-06
-6.75039e-06
-6.75053e-06
-6.75066e-06
-6.7508e-06
-6.75094e-06
-6.75108e-06
-6.75122e-06
-6.75137e-06
-6.75152e-06
-6.75167e-06
-6.75182e-06
-6.75198e-06
-6.75214e-06
-6.75231e-06
-6.75248e-06
-6.75265e-06
-6.75282e-06
-6.753e-06
-6.75318e-06
-6.75336e-06
-6.75355e-06
-6.75373e-06
-6.75392e-06
-6.75411e-06
-6.75431e-06
-6.7545e-06
-6.7547e-06
-6.7549e-06
-6.7551e-06
-6.75531e-06
-6.75552e-06
-6.75574e-06
-6.75596e-06
-6.75619e-06
-6.75643e-06
-6.75668e-06
-6.75693e-06
-6.75719e-06
-6.75746e-06
-6.75774e-06
-6.75803e-06
-6.75833e-06
-6.75863e-06
-6.75894e-06
-6.75925e-06
-6.75956e-06
-6.75986e-06
-6.76017e-06
-6.76047e-06
-6.76076e-06
-6.76103e-06
-6.76129e-06
-6.76153e-06
-6.76175e-06
-6.76195e-06
-6.76212e-06
-6.76226e-06
-6.76237e-06
-6.76246e-06
-6.76252e-06
-6.76255e-06
-6.76255e-06
-6.76253e-06
-6.76249e-06
-6.76244e-06
-6.76237e-06
-6.7623e-06
-6.76222e-06
-6.76214e-06
-6.76208e-06
-6.76203e-06
-6.76201e-06
-6.76201e-06
-6.76204e-06
-6.7621e-06
-6.76221e-06
-6.76235e-06
-6.76254e-06
-6.76277e-06
-6.76304e-06
-6.76335e-06
-6.76368e-06
-6.76404e-06
-6.76441e-06
-6.76478e-06
-6.76514e-06
-6.76547e-06
-6.76577e-06
-6.76602e-06
-6.7662e-06
-6.7663e-06
-6.76632e-06
-6.76623e-06
-6.76604e-06
-6.76574e-06
-6.76532e-06
-6.7648e-06
-6.76416e-06
-6.76343e-06
-6.7626e-06
-6.76169e-06
-6.76072e-06
-6.7597e-06
-6.75864e-06
-6.75758e-06
-6.75653e-06
-6.75551e-06
-6.75454e-06
-6.75363e-06
-6.75279e-06
-6.75202e-06
-6.75131e-06
-6.75063e-06
-6.74996e-06
-6.74927e-06
-6.74854e-06
-6.74775e-06
-6.7469e-06
-6.74602e-06
-6.74518e-06
-6.74444e-06
-6.74388e-06
-6.74354e-06
-6.74343e-06
-6.7434e-06
-6.74321e-06
-6.74242e-06
-6.74044e-06
-6.73652e-06
-6.72986e-06
-6.71966e-06
-6.70511e-06
-6.68542e-06
-6.65961e-06
-6.62613e-06
-6.58239e-06
-6.52456e-06
-6.44755e-06
-6.34241e-06
-6.17422e-06
-5.776e-06
-4.44554e-06
4.92108e-07
1.94737e-05
0.000112355
0.00027259
0.00044998
0.000613538
0.000739415
0.000823547
0.000874725
0.00090413
0.000920484
0.000929418
0.000934251
0.000936852
0.000938248
0.000938996
0.000939396
0.00093961
0.000939724
0.000939785
0.000939817
0.000939835
0.000939843
0.000939848
0.00093985
0.000939851
0.000939851
0.000939851
0.000939851
0.000939851
0.00093985
0.00093985
0.00093985
0.000939849
0.000939849
)
;

boundaryField
{
    fixedWall
    {
        type            calculated;
        value           uniform 0;
    }
    outlet
    {
        type            calculated;
        value           uniform 0.000939849;
    }
    defaultFaces
    {
        type            empty;
    }
}


// ************************************************************************* //
