/*--------------------------------*- C++ -*----------------------------------*\
| =========                 |                                                 |
| \\      /  F ield         | OpenFOAM: The Open Source CFD Toolbox           |
|  \\    /   O peration     | Version:  2406                                  |
|   \\  /    A nd           | Website:  www.openfoam.com                      |
|    \\/     M anipulation  |                                                 |
\*---------------------------------------------------------------------------*/
FoamFile
{
    version     2.0;
    format      ascii;
    arch        "LSB;label=32;scalar=64";
    class       volScalarField;
    location    "6";
    object      Qdot;
}
// * * * * * * * * * * * * * * * * * * * * * * * * * * * * * * * * * * * * * //

dimensions      [1 -1 -3 0 0 0 0];

internalField   nonuniform List<scalar> 
1000
(
-3.22769e-18
7.19339e-13
-3.56337e-15
-3.90494e-14
1.40125e-07
6.91754e-07
2.43201e-06
8.04013e-06
2.19731e-05
5.29177e-05
0.000114974
0.000228689
0.000422756
0.000733635
0.00120599
0.00189112
0.00284555
0.00412844
0.00579905
0.00791411
0.0105247
0.0136739
0.0173943
0.0217071
0.0266198
0.0321269
0.0382093
0.0448349
0.0519601
0.0595309
0.067485
0.0757533
0.0842625
0.0929366
0.101699
0.110476
0.119194
0.127786
0.13619
0.144351
0.152218
0.159752
0.166917
0.173688
0.180044
0.185973
0.191469
0.196531
0.201162
0.205373
0.209176
0.212586
0.215621
0.218304
0.220653
0.222694
0.224448
0.22594
0.227191
0.228226
0.229065
0.22973
0.230242
0.230619
0.230878
0.231038
0.231112
0.231116
0.231062
0.230962
0.230826
0.230665
0.230486
0.230298
0.230107
0.229918
0.229737
0.229569
0.229416
0.229283
0.229171
0.229082
0.229018
0.228981
0.228971
0.228989
0.229035
0.229109
0.229211
0.229341
0.229498
0.229682
0.229892
0.230127
0.230387
0.23067
0.230976
0.231303
0.231651
0.23202
0.232406
0.232811
0.233233
0.23367
0.234123
0.23459
0.23507
0.235563
0.236068
0.236584
0.237108
0.237642
0.238185
0.238736
0.239297
0.239866
0.240442
0.241024
0.241612
0.242205
0.242804
0.243407
0.244015
0.244627
0.245242
0.245862
0.246485
0.247111
0.24774
0.248372
0.249006
0.249644
0.250283
0.250926
0.25157
0.252217
0.252865
0.253516
0.254169
0.254824
0.255481
0.25614
0.2568
0.257463
0.258127
0.258794
0.259462
0.260132
0.260804
0.261478
0.262154
0.262832
0.263511
0.264193
0.264877
0.265563
0.266251
0.266941
0.267633
0.268328
0.269024
0.269723
0.270424
0.271127
0.271833
0.272541
0.273252
0.273964
0.27468
0.275397
0.276117
0.27684
0.277565
0.278293
0.279024
0.279757
0.280492
0.28123
0.281966
0.28271
0.283457
0.284207
0.284959
0.285715
0.286473
0.287234
0.287998
0.288765
0.289535
0.290308
0.291083
0.291862
0.292644
0.293428
0.294216
0.295007
0.295801
0.296597
0.297397
0.298201
0.299007
0.299816
0.300629
0.301445
0.302264
0.303086
0.303912
0.304741
0.305573
0.306408
0.307247
0.308089
0.308935
0.309784
0.310636
0.311492
0.312351
0.313213
0.314079
0.314949
0.315822
0.316698
0.317578
0.318462
0.319349
0.320239
0.321133
0.322031
0.322933
0.323838
0.324747
0.325659
0.326575
0.327495
0.328419
0.329346
0.330277
0.331212
0.332151
0.333093
0.334039
0.33499
0.335944
0.336902
0.337864
0.33883
0.339799
0.340773
0.341751
0.342733
0.343719
0.344709
0.345703
0.346701
0.347703
0.34871
0.34972
0.350735
0.351754
0.352778
0.353805
0.354837
0.355873
0.356914
0.357959
0.359009
0.360062
0.361121
0.362184
0.363251
0.364323
0.365399
0.36648
0.367566
0.368656
0.369752
0.370851
0.371956
0.373065
0.374179
0.375298
0.376422
0.377551
0.378685
0.379823
0.380967
0.382116
0.38327
0.384429
0.385593
0.386762
0.387937
0.389117
0.390302
0.391492
0.392688
0.393889
0.395095
0.396305
0.397513
0.398737
0.399965
0.401199
0.402439
0.403685
0.404936
0.406193
0.407456
0.408724
0.409999
0.411279
0.412565
0.413857
0.415155
0.416459
0.417769
0.419085
0.420408
0.421736
0.423071
0.424411
0.425759
0.427112
0.428472
0.429838
0.43121
0.432589
0.433975
0.435367
0.436765
0.43817
0.439582
0.441001
0.442426
0.443858
0.445297
0.446742
0.448195
0.449654
0.45112
0.452594
0.454074
0.455562
0.457056
0.458558
0.460067
0.461584
0.463108
0.464639
0.466178
0.467724
0.469277
0.470839
0.472408
0.473984
0.475569
0.477161
0.478761
0.480369
0.481986
0.48361
0.485242
0.486883
0.488532
0.490189
0.491854
0.493528
0.495211
0.496902
0.498602
0.500311
0.502028
0.503754
0.50549
0.507234
0.508987
0.51075
0.512522
0.514303
0.516093
0.517893
0.519703
0.521522
0.523351
0.52519
0.527039
0.528897
0.530766
0.532644
0.534533
0.536432
0.538341
0.540261
0.542191
0.544132
0.546083
0.548045
0.550017
0.552
0.553979
0.555985
0.558002
0.56003
0.562069
0.56412
0.566182
0.568256
0.570341
0.572438
0.574546
0.576667
0.578799
0.580943
0.583099
0.585267
0.587447
0.589639
0.591843
0.59406
0.596289
0.59853
0.600784
0.603051
0.60533
0.607622
0.609927
0.612245
0.614576
0.61692
0.619277
0.621647
0.624031
0.626428
0.628839
0.631263
0.633701
0.636153
0.638618
0.641098
0.643592
0.6461
0.648623
0.65116
0.653711
0.656278
0.65884
0.661417
0.664028
0.666655
0.669297
0.671954
0.674627
0.677316
0.680021
0.682741
0.685478
0.68823
0.691
0.693786
0.696588
0.699408
0.702244
0.705098
0.707969
0.710857
0.713764
0.716688
0.71963
0.72259
0.725569
0.728566
0.731581
0.734616
0.737669
0.740742
0.743834
0.746946
0.750077
0.753228
0.756399
0.75959
0.762801
0.766033
0.769286
0.772559
0.775854
0.779169
0.782507
0.785865
0.789246
0.792648
0.796072
0.799519
0.802988
0.80648
0.809995
0.813533
0.817094
0.820678
0.824286
0.827918
0.831575
0.835255
0.83896
0.84269
0.846444
0.850224
0.854029
0.85786
0.861717
0.865599
0.869508
0.873444
0.877406
0.881396
0.885394
0.889408
0.893479
0.897578
0.901704
0.905858
0.910041
0.914252
0.918493
0.922763
0.927063
0.931393
0.935753
0.940144
0.944567
0.94902
0.953505
0.958022
0.962571
0.967153
0.971768
0.976417
0.981098
0.985814
0.990565
0.99535
1.00017
1.00503
1.00992
1.01484
1.01981
1.02481
1.02985
1.03492
1.04004
1.04519
1.05038
1.05561
1.06088
1.06619
1.07154
1.07693
1.08236
1.08784
1.09335
1.09891
1.10451
1.11015
1.11584
1.12157
1.12735
1.13317
1.13903
1.14494
1.1509
1.1569
1.16295
1.16905
1.17519
1.18136
1.18755
1.19384
1.20017
1.20656
1.213
1.21948
1.22602
1.23261
1.23925
1.24594
1.25269
1.25949
1.26635
1.27326
1.28022
1.28725
1.29433
1.30146
1.30866
1.31592
1.32323
1.3306
1.33804
1.34554
1.3531
1.36072
1.36841
1.37616
1.38398
1.39187
1.39982
1.40784
1.41593
1.42409
1.43233
1.44063
1.44901
1.45746
1.46598
1.47458
1.48326
1.49202
1.50085
1.50976
1.51875
1.52783
1.53699
1.54623
1.55556
1.56492
1.57435
1.58395
1.59363
1.6034
1.61326
1.62321
1.63325
1.64338
1.65361
1.66393
1.67435
1.68487
1.69549
1.70621
1.71703
1.72795
1.73897
1.7501
1.76134
1.77268
1.78413
1.79569
1.80736
1.81915
1.83104
1.84305
1.85518
1.86743
1.87979
1.89228
1.90489
1.91763
1.93049
1.94347
1.95659
1.96984
1.98323
1.99674
2.0104
2.0242
2.03814
2.05223
2.06646
2.08084
2.09538
2.11007
2.12491
2.13992
2.15508
2.17041
2.18591
2.20158
2.21741
2.23342
2.24961
2.26598
2.28253
2.29927
2.31619
2.33331
2.35061
2.36812
2.38582
2.40373
2.42184
2.44016
2.45868
2.47743
2.49639
2.51557
2.53498
2.55461
2.57447
2.59457
2.6149
2.63547
2.65629
2.67736
2.69867
2.72025
2.74208
2.76417
2.78653
2.80916
2.83206
2.85524
2.87871
2.90246
2.9265
2.95083
2.97542
3.00017
3.0254
3.05095
3.07682
3.10301
3.12953
3.15638
3.18358
3.21112
3.23901
3.26725
3.29586
3.32484
3.35419
3.38392
3.41404
3.44456
3.47548
3.5068
3.53855
3.57071
3.60332
3.63636
3.66985
3.7038
3.73822
3.77311
3.80849
3.84437
3.88075
3.91765
3.95508
3.99305
4.03157
4.07064
4.11029
4.15053
4.19136
4.23281
4.27487
4.31757
4.36092
4.40493
4.44962
4.49499
4.54107
4.58787
4.6354
4.68367
4.73265
4.7821
4.83272
4.88416
4.93642
4.98954
5.04352
5.09838
5.15414
5.21083
5.26845
5.32704
5.38661
5.44718
5.50878
5.57143
5.63515
5.69998
5.76592
5.83302
5.9013
5.97079
6.04151
6.1135
6.18678
6.2614
6.33738
6.41475
6.49356
6.57383
6.65561
6.73893
6.82382
6.91034
6.99852
7.0884
7.18002
7.27344
7.36869
7.46582
7.56488
7.66592
7.76898
7.87413
7.98142
8.09089
8.20261
8.31664
8.43303
8.55186
8.67318
8.79707
8.92359
9.05282
9.18484
9.31972
9.45754
9.59771
9.7406
9.8878
10.0383
10.1922
10.3496
10.5107
10.6754
10.8441
11.0167
11.1934
11.3744
11.5597
11.7496
11.9441
12.1435
12.3478
12.5573
12.7722
12.9925
13.2185
13.4505
13.6885
13.9328
14.1837
14.4413
14.7059
14.9778
15.2572
15.5444
15.8398
16.1436
16.4561
16.7778
17.1089
17.4499
17.8012
18.1631
18.5363
18.921
19.3171
19.7234
20.1459
20.5821
21.0327
21.4984
21.9798
22.4777
22.9928
23.5259
24.0777
24.6492
25.2413
25.8548
26.4909
27.1504
27.8347
28.5448
29.282
30.0476
30.843
31.6698
32.5296
33.4242
34.3553
35.3249
36.3297
37.3751
38.4738
39.6206
40.8185
42.0707
43.3806
44.7521
46.1892
47.6964
49.2786
50.9409
52.689
54.528
56.4501
58.4905
60.6449
62.9222
65.3311
67.8814
70.5841
73.4511
76.4953
79.7312
83.1746
86.8428
90.7552
94.9332
99.4005
104.184
109.312
114.82
120.743
127.124
133.983
141.366
149.419
158.157
167.661
178.026
189.357
201.781
215.442
230.51
247.184
265.698
286.328
309.405
335.322
364.558
397.698
435.471
478.474
528.487
586.641
654.826
735.509
831.923
948.335
1090.42
1265.84
1485.12
1763.03
2120.83
2590.03
3218.81
4083.39
5308.86
7109.85
9879.83
14412.2
22499
38704.6
76410.2
182037
538792
1.87289e+06
7.15633e+06
3.43138e+07
5.9692e+06
27295.4
108.537
1.2109
0.0539617
0.0078157
0.00254094
0.00135428
0.000958982
0.0007952
0.000718931
0.000680968
0.000661428
0.000651151
0.000645766
0.000642927
0.000641407
0.000640595
0.000640125
0.000639878
0.000639825
0.000639836
0.000639806
0.000639795
0.000639794
0.000639797
0.000639729
0.000639812
0.000639821
0.000639756
0.000639765
0.00063985
0.000639788
)
;

boundaryField
{
    fixedWall
    {
        type            calculated;
        value           uniform 0;
    }
    outlet
    {
        type            calculated;
        value           uniform 0;
    }
    defaultFaces
    {
        type            empty;
    }
}


// ************************************************************************* //
