/*--------------------------------*- C++ -*----------------------------------*\
| =========                 |                                                 |
| \\      /  F ield         | OpenFOAM: The Open Source CFD Toolbox           |
|  \\    /   O peration     | Version:  2406                                  |
|   \\  /    A nd           | Website:  www.openfoam.com                      |
|    \\/     M anipulation  |                                                 |
\*---------------------------------------------------------------------------*/
FoamFile
{
    version     2.0;
    format      ascii;
    arch        "LSB;label=32;scalar=64";
    class       volScalarField;
    location    "6";
    object      T;
}
// * * * * * * * * * * * * * * * * * * * * * * * * * * * * * * * * * * * * * //

dimensions      [0 0 0 1 0 0 0];

internalField   nonuniform List<scalar> 
1000
(
309.859
340.182
367.692
392.933
416.285
438.033
458.394
477.537
495.601
512.697
528.919
544.345
559.043
573.069
586.475
599.302
611.59
623.373
634.681
645.541
655.978
666.014
675.669
684.961
693.909
702.526
710.829
718.83
726.541
733.975
741.142
748.053
754.716
761.143
767.34
773.316
779.079
784.636
789.995
795.162
800.143
804.945
809.574
814.035
818.333
822.475
826.465
830.308
834.008
837.571
841.001
844.302
847.478
850.533
853.471
856.297
859.012
861.623
864.13
866.539
868.852
871.073
873.204
875.248
877.209
879.09
880.892
882.62
884.274
885.859
887.376
888.828
890.217
891.545
892.815
894.029
895.189
896.296
897.354
898.363
899.325
900.244
901.119
901.953
902.747
903.503
904.223
904.908
905.56
906.179
906.768
907.327
907.858
908.362
908.84
909.293
909.723
910.13
910.516
910.881
911.227
911.554
911.863
912.155
912.431
912.692
912.938
913.17
913.389
913.595
913.788
913.971
914.142
914.304
914.456
914.6
914.734
914.861
914.979
915.091
915.195
915.293
915.384
915.47
915.55
915.625
915.695
915.761
915.822
915.879
915.932
915.982
916.028
916.071
916.111
916.148
916.183
916.215
916.245
916.272
916.298
916.322
916.344
916.364
916.383
916.4
916.416
916.431
916.444
916.457
916.468
916.479
916.489
916.498
916.506
916.513
916.52
916.526
916.531
916.537
916.541
916.545
916.549
916.552
916.555
916.558
916.56
916.562
916.564
916.566
916.567
916.568
916.569
916.57
916.571
916.571
916.571
916.572
916.572
916.572
916.572
916.571
916.571
916.571
916.57
916.57
916.569
916.569
916.568
916.567
916.567
916.566
916.565
916.564
916.563
916.562
916.561
916.56
916.559
916.558
916.557
916.556
916.555
916.554
916.553
916.552
916.551
916.55
916.548
916.547
916.546
916.545
916.544
916.542
916.541
916.54
916.539
916.538
916.536
916.535
916.534
916.533
916.532
916.53
916.529
916.528
916.527
916.526
916.524
916.523
916.522
916.521
916.52
916.518
916.517
916.516
916.515
916.514
916.513
916.512
916.511
916.509
916.508
916.507
916.506
916.505
916.504
916.503
916.502
916.501
916.5
916.499
916.498
916.498
916.497
916.496
916.495
916.494
916.493
916.492
916.492
916.491
916.49
916.489
916.489
916.488
916.487
916.487
916.486
916.485
916.485
916.484
916.484
916.483
916.483
916.482
916.482
916.481
916.481
916.48
916.48
916.48
916.479
916.479
916.479
916.478
916.478
916.478
916.478
916.477
916.477
916.477
916.477
916.477
916.477
916.477
916.477
916.476
916.476
916.476
916.476
916.476
916.476
916.477
916.477
916.477
916.477
916.477
916.477
916.477
916.477
916.478
916.478
916.478
916.478
916.479
916.479
916.479
916.479
916.48
916.48
916.48
916.481
916.481
916.482
916.482
916.482
916.483
916.483
916.484
916.484
916.485
916.485
916.486
916.486
916.487
916.487
916.488
916.488
916.489
916.489
916.49
916.49
916.491
916.492
916.492
916.493
916.493
916.494
916.495
916.495
916.496
916.496
916.497
916.498
916.498
916.499
916.499
916.5
916.501
916.501
916.502
916.502
916.503
916.503
916.504
916.505
916.505
916.506
916.506
916.507
916.507
916.508
916.508
916.509
916.509
916.509
916.51
916.51
916.511
916.511
916.511
916.512
916.512
916.512
916.513
916.513
916.513
916.513
916.514
916.514
916.514
916.514
916.514
916.514
916.514
916.514
916.514
916.514
916.515
916.515
916.514
916.514
916.514
916.514
916.514
916.514
916.514
916.514
916.514
916.514
916.514
916.513
916.513
916.513
916.513
916.513
916.512
916.512
916.512
916.512
916.512
916.511
916.511
916.511
916.511
916.511
916.51
916.51
916.51
916.51
916.51
916.51
916.509
916.509
916.509
916.509
916.509
916.509
916.509
916.509
916.509
916.509
916.509
916.509
916.509
916.509
916.509
916.509
916.509
916.509
916.509
916.509
916.509
916.509
916.509
916.509
916.509
916.509
916.51
916.51
916.51
916.51
916.51
916.51
916.51
916.511
916.511
916.511
916.511
916.511
916.511
916.512
916.512
916.512
916.512
916.512
916.512
916.513
916.513
916.513
916.513
916.513
916.513
916.514
916.514
916.514
916.514
916.514
916.514
916.514
916.514
916.514
916.515
916.515
916.515
916.515
916.515
916.515
916.515
916.515
916.515
916.515
916.515
916.515
916.515
916.515
916.515
916.515
916.515
916.515
916.515
916.515
916.515
916.515
916.515
916.515
916.515
916.515
916.515
916.515
916.515
916.515
916.515
916.515
916.515
916.515
916.515
916.515
916.515
916.515
916.515
916.515
916.515
916.515
916.515
916.514
916.514
916.514
916.514
916.514
916.514
916.514
916.513
916.513
916.513
916.513
916.513
916.513
916.512
916.512
916.512
916.512
916.511
916.511
916.511
916.511
916.511
916.51
916.51
916.51
916.51
916.51
916.509
916.509
916.509
916.509
916.509
916.509
916.509
916.508
916.508
916.508
916.508
916.508
916.508
916.508
916.508
916.508
916.508
916.509
916.509
916.509
916.509
916.509
916.509
916.51
916.51
916.51
916.511
916.511
916.511
916.512
916.512
916.512
916.513
916.513
916.514
916.514
916.514
916.515
916.515
916.516
916.516
916.517
916.517
916.517
916.518
916.518
916.519
916.519
916.519
916.52
916.52
916.52
916.52
916.521
916.521
916.521
916.521
916.521
916.522
916.522
916.522
916.522
916.522
916.522
916.522
916.522
916.521
916.521
916.521
916.521
916.521
916.521
916.521
916.52
916.52
916.52
916.52
916.519
916.519
916.519
916.519
916.519
916.518
916.518
916.518
916.518
916.518
916.517
916.517
916.517
916.517
916.517
916.517
916.517
916.517
916.517
916.516
916.516
916.516
916.516
916.516
916.516
916.516
916.516
916.516
916.516
916.516
916.516
916.516
916.516
916.515
916.515
916.515
916.515
916.515
916.514
916.514
916.514
916.514
916.513
916.513
916.512
916.512
916.511
916.511
916.51
916.51
916.509
916.509
916.508
916.508
916.507
916.506
916.506
916.505
916.505
916.504
916.503
916.503
916.502
916.501
916.501
916.5
916.5
916.499
916.499
916.498
916.498
916.498
916.498
916.497
916.497
916.497
916.497
916.497
916.497
916.497
916.498
916.498
916.498
916.499
916.499
916.5
916.501
916.501
916.502
916.503
916.504
916.505
916.506
916.507
916.508
916.51
916.511
916.512
916.514
916.515
916.517
916.518
916.519
916.521
916.522
916.524
916.525
916.527
916.528
916.53
916.531
916.532
916.533
916.535
916.536
916.537
916.538
916.539
916.539
916.54
916.541
916.541
916.542
916.542
916.542
916.542
916.542
916.542
916.542
916.542
916.542
916.541
916.541
916.54
916.54
916.539
916.538
916.537
916.536
916.535
916.534
916.533
916.532
916.531
916.529
916.528
916.527
916.525
916.524
916.522
916.52
916.519
916.517
916.515
916.514
916.512
916.51
916.508
916.507
916.505
916.503
916.501
916.5
916.498
916.496
916.494
916.493
916.491
916.49
916.488
916.487
916.485
916.484
916.483
916.482
916.481
916.48
916.479
916.479
916.478
916.478
916.478
916.477
916.477
916.478
916.478
916.478
916.478
916.479
916.48
916.48
916.481
916.482
916.483
916.484
916.485
916.486
916.487
916.489
916.49
916.491
916.492
916.494
916.495
916.496
916.498
916.499
916.5
916.502
916.503
916.504
916.506
916.507
916.508
916.509
916.51
916.511
916.512
916.513
916.513
916.514
916.514
916.515
916.515
916.515
916.514
916.514
916.513
916.512
916.511
916.51
916.508
916.507
916.505
916.503
916.501
916.499
916.497
916.495
916.492
916.49
916.488
916.487
916.485
916.483
916.482
916.481
916.481
916.48
916.48
916.481
916.481
916.482
916.483
916.484
916.485
916.487
916.488
916.489
916.49
916.491
916.492
916.492
916.492
916.491
916.49
916.488
916.486
916.483
916.48
916.476
916.472
916.467
916.463
916.458
916.453
916.448
916.443
916.439
916.436
916.433
916.431
916.43
916.43
916.431
916.433
916.436
916.439
916.444
916.449
916.455
916.462
916.468
916.474
916.48
916.486
916.491
916.495
916.499
916.501
916.502
916.502
916.5
916.496
916.489
916.479
916.463
916.442
916.415
916.381
916.342
916.298
916.251
916.205
916.16
916.12
916.086
916.057
916.032
916.003
915.946
915.799
915.413
914.452
912.009
904.766
877.466
691.387
534.706
432.798
371.099
335.731
316.115
305.426
299.655
296.554
294.89
293.999
293.522
293.266
293.13
293.057
293.018
292.997
292.986
292.98
292.977
292.975
292.974
292.974
292.974
292.974
292.974
292.974
292.974
292.974
292.974
292.974
292.974
292.974
)
;

boundaryField
{
    fixedWall
    {
        type            fixedValue;
        value           uniform 293;
    }
    outlet
    {
        type            inletOutlet;
        inletValue      uniform 293;
        value           uniform 292.974;
    }
    defaultFaces
    {
        type            empty;
    }
}


// ************************************************************************* //
