/*--------------------------------*- C++ -*----------------------------------*\
| =========                 |                                                 |
| \\      /  F ield         | OpenFOAM: The Open Source CFD Toolbox           |
|  \\    /   O peration     | Version:  2406                                  |
|   \\  /    A nd           | Website:  www.openfoam.com                      |
|    \\/     M anipulation  |                                                 |
\*---------------------------------------------------------------------------*/
FoamFile
{
    version     2.0;
    format      ascii;
    arch        "LSB;label=32;scalar=64";
    class       volVectorField;
    location    "6";
    object      U;
}
// * * * * * * * * * * * * * * * * * * * * * * * * * * * * * * * * * * * * * //

dimensions      [0 1 -1 0 0 0 0];

internalField   nonuniform List<vector> 
1000
(
(-2.10485e-06 0 0)
(-1.02652e-05 0 0)
(-2.59949e-05 0 0)
(-4.68073e-05 0 0)
(-7.13951e-05 0 0)
(-9.89777e-05 0 0)
(-0.000128996 0 0)
(-0.000161 0 0)
(-0.000194627 0 0)
(-0.00022958 0 0)
(-0.000265616 0 0)
(-0.000302531 0 0)
(-0.000340155 0 0)
(-0.000378339 0 0)
(-0.000416957 0 0)
(-0.000455899 0 0)
(-0.000495069 0 0)
(-0.00053438 0 0)
(-0.000573758 0 0)
(-0.000613134 0 0)
(-0.000652449 0 0)
(-0.000691646 0 0)
(-0.000730678 0 0)
(-0.0007695 0 0)
(-0.000808071 0 0)
(-0.000846354 0 0)
(-0.000884316 0 0)
(-0.000921927 0 0)
(-0.000959159 0 0)
(-0.000995985 0 0)
(-0.00103238 0 0)
(-0.00106833 0 0)
(-0.00110382 0 0)
(-0.00113881 0 0)
(-0.00117331 0 0)
(-0.00120729 0 0)
(-0.00124075 0 0)
(-0.00127366 0 0)
(-0.00130603 0 0)
(-0.00133784 0 0)
(-0.00136908 0 0)
(-0.00139975 0 0)
(-0.00142985 0 0)
(-0.00145936 0 0)
(-0.00148829 0 0)
(-0.00151663 0 0)
(-0.00154438 0 0)
(-0.00157153 0 0)
(-0.0015981 0 0)
(-0.00162407 0 0)
(-0.00164945 0 0)
(-0.00167425 0 0)
(-0.00169845 0 0)
(-0.00172207 0 0)
(-0.00174511 0 0)
(-0.00176757 0 0)
(-0.00178946 0 0)
(-0.00181078 0 0)
(-0.00183154 0 0)
(-0.00185174 0 0)
(-0.00187138 0 0)
(-0.00189049 0 0)
(-0.00190905 0 0)
(-0.00192708 0 0)
(-0.00194458 0 0)
(-0.00196157 0 0)
(-0.00197805 0 0)
(-0.00199403 0 0)
(-0.00200952 0 0)
(-0.00202452 0 0)
(-0.00203904 0 0)
(-0.0020531 0 0)
(-0.00206669 0 0)
(-0.00207984 0 0)
(-0.00209255 0 0)
(-0.00210483 0 0)
(-0.00211668 0 0)
(-0.00212812 0 0)
(-0.00213916 0 0)
(-0.00214981 0 0)
(-0.00216006 0 0)
(-0.00216995 0 0)
(-0.00217947 0 0)
(-0.00218863 0 0)
(-0.00219744 0 0)
(-0.00220592 0 0)
(-0.00221407 0 0)
(-0.0022219 0 0)
(-0.00222941 0 0)
(-0.00223663 0 0)
(-0.00224355 0 0)
(-0.00225019 0 0)
(-0.00225656 0 0)
(-0.00226266 0 0)
(-0.0022685 0 0)
(-0.00227409 0 0)
(-0.00227944 0 0)
(-0.00228456 0 0)
(-0.00228945 0 0)
(-0.00229412 0 0)
(-0.00229859 0 0)
(-0.00230285 0 0)
(-0.00230692 0 0)
(-0.0023108 0 0)
(-0.00231449 0 0)
(-0.00231802 0 0)
(-0.00232137 0 0)
(-0.00232457 0 0)
(-0.0023276 0 0)
(-0.0023305 0 0)
(-0.00233328 0 0)
(-0.00233589 0 0)
(-0.00233833 0 0)
(-0.00234069 0 0)
(-0.00234293 0 0)
(-0.00234506 0 0)
(-0.00234708 0 0)
(-0.002349 0 0)
(-0.00235081 0 0)
(-0.00235253 0 0)
(-0.00235416 0 0)
(-0.0023557 0 0)
(-0.00235716 0 0)
(-0.00235854 0 0)
(-0.00235985 0 0)
(-0.00236108 0 0)
(-0.00236225 0 0)
(-0.00236335 0 0)
(-0.00236439 0 0)
(-0.00236537 0 0)
(-0.0023663 0 0)
(-0.00236717 0 0)
(-0.002368 0 0)
(-0.00236878 0 0)
(-0.00236951 0 0)
(-0.0023702 0 0)
(-0.00237086 0 0)
(-0.00237147 0 0)
(-0.00237205 0 0)
(-0.0023726 0 0)
(-0.00237312 0 0)
(-0.0023736 0 0)
(-0.00237406 0 0)
(-0.00237449 0 0)
(-0.0023749 0 0)
(-0.00237529 0 0)
(-0.00237565 0 0)
(-0.00237599 0 0)
(-0.00237631 0 0)
(-0.00237662 0 0)
(-0.00237691 0 0)
(-0.00237718 0 0)
(-0.00237744 0 0)
(-0.00237768 0 0)
(-0.00237791 0 0)
(-0.00237813 0 0)
(-0.00237834 0 0)
(-0.00237853 0 0)
(-0.00237872 0 0)
(-0.0023789 0 0)
(-0.00237907 0 0)
(-0.00237923 0 0)
(-0.00237938 0 0)
(-0.00237953 0 0)
(-0.00237967 0 0)
(-0.0023798 0 0)
(-0.00237993 0 0)
(-0.00238006 0 0)
(-0.00238018 0 0)
(-0.00238029 0 0)
(-0.0023804 0 0)
(-0.00238051 0 0)
(-0.00238061 0 0)
(-0.00238071 0 0)
(-0.00238081 0 0)
(-0.0023809 0 0)
(-0.00238099 0 0)
(-0.00238109 0 0)
(-0.00238117 0 0)
(-0.00238126 0 0)
(-0.00238134 0 0)
(-0.00238142 0 0)
(-0.00238151 0 0)
(-0.00238158 0 0)
(-0.00238166 0 0)
(-0.00238174 0 0)
(-0.00238181 0 0)
(-0.00238189 0 0)
(-0.00238196 0 0)
(-0.00238203 0 0)
(-0.00238211 0 0)
(-0.00238218 0 0)
(-0.00238225 0 0)
(-0.00238232 0 0)
(-0.00238239 0 0)
(-0.00238245 0 0)
(-0.00238252 0 0)
(-0.00238259 0 0)
(-0.00238266 0 0)
(-0.00238272 0 0)
(-0.00238279 0 0)
(-0.00238286 0 0)
(-0.00238292 0 0)
(-0.00238299 0 0)
(-0.00238306 0 0)
(-0.00238312 0 0)
(-0.00238319 0 0)
(-0.00238325 0 0)
(-0.00238331 0 0)
(-0.00238338 0 0)
(-0.00238344 0 0)
(-0.00238351 0 0)
(-0.00238357 0 0)
(-0.00238363 0 0)
(-0.0023837 0 0)
(-0.00238376 0 0)
(-0.00238382 0 0)
(-0.00238389 0 0)
(-0.00238395 0 0)
(-0.00238401 0 0)
(-0.00238408 0 0)
(-0.00238414 0 0)
(-0.0023842 0 0)
(-0.00238426 0 0)
(-0.00238432 0 0)
(-0.00238439 0 0)
(-0.00238445 0 0)
(-0.00238451 0 0)
(-0.00238457 0 0)
(-0.00238463 0 0)
(-0.00238469 0 0)
(-0.00238476 0 0)
(-0.00238482 0 0)
(-0.00238488 0 0)
(-0.00238494 0 0)
(-0.002385 0 0)
(-0.00238506 0 0)
(-0.00238512 0 0)
(-0.00238518 0 0)
(-0.00238524 0 0)
(-0.0023853 0 0)
(-0.00238536 0 0)
(-0.00238542 0 0)
(-0.00238548 0 0)
(-0.00238554 0 0)
(-0.0023856 0 0)
(-0.00238566 0 0)
(-0.00238572 0 0)
(-0.00238578 0 0)
(-0.00238584 0 0)
(-0.0023859 0 0)
(-0.00238596 0 0)
(-0.00238602 0 0)
(-0.00238608 0 0)
(-0.00238614 0 0)
(-0.0023862 0 0)
(-0.00238626 0 0)
(-0.00238632 0 0)
(-0.00238638 0 0)
(-0.00238644 0 0)
(-0.0023865 0 0)
(-0.00238655 0 0)
(-0.00238661 0 0)
(-0.00238667 0 0)
(-0.00238673 0 0)
(-0.00238679 0 0)
(-0.00238685 0 0)
(-0.00238691 0 0)
(-0.00238697 0 0)
(-0.00238703 0 0)
(-0.00238709 0 0)
(-0.00238715 0 0)
(-0.0023872 0 0)
(-0.00238726 0 0)
(-0.00238732 0 0)
(-0.00238738 0 0)
(-0.00238744 0 0)
(-0.0023875 0 0)
(-0.00238756 0 0)
(-0.00238762 0 0)
(-0.00238768 0 0)
(-0.00238774 0 0)
(-0.0023878 0 0)
(-0.00238786 0 0)
(-0.00238792 0 0)
(-0.00238797 0 0)
(-0.00238803 0 0)
(-0.00238809 0 0)
(-0.00238815 0 0)
(-0.00238821 0 0)
(-0.00238827 0 0)
(-0.00238833 0 0)
(-0.00238839 0 0)
(-0.00238845 0 0)
(-0.00238851 0 0)
(-0.00238857 0 0)
(-0.00238863 0 0)
(-0.00238869 0 0)
(-0.00238875 0 0)
(-0.00238881 0 0)
(-0.00238887 0 0)
(-0.00238893 0 0)
(-0.00238899 0 0)
(-0.00238905 0 0)
(-0.00238911 0 0)
(-0.00238917 0 0)
(-0.00238924 0 0)
(-0.0023893 0 0)
(-0.00238936 0 0)
(-0.00238942 0 0)
(-0.00238948 0 0)
(-0.00238954 0 0)
(-0.0023896 0 0)
(-0.00238966 0 0)
(-0.00238972 0 0)
(-0.00238978 0 0)
(-0.00238985 0 0)
(-0.00238991 0 0)
(-0.00238997 0 0)
(-0.00239003 0 0)
(-0.00239009 0 0)
(-0.00239015 0 0)
(-0.00239022 0 0)
(-0.00239028 0 0)
(-0.00239034 0 0)
(-0.0023904 0 0)
(-0.00239047 0 0)
(-0.00239053 0 0)
(-0.00239059 0 0)
(-0.00239065 0 0)
(-0.00239072 0 0)
(-0.00239078 0 0)
(-0.00239084 0 0)
(-0.00239091 0 0)
(-0.00239097 0 0)
(-0.00239103 0 0)
(-0.0023911 0 0)
(-0.00239116 0 0)
(-0.00239122 0 0)
(-0.00239129 0 0)
(-0.00239135 0 0)
(-0.00239141 0 0)
(-0.00239148 0 0)
(-0.00239154 0 0)
(-0.00239161 0 0)
(-0.00239167 0 0)
(-0.00239174 0 0)
(-0.0023918 0 0)
(-0.00239187 0 0)
(-0.00239193 0 0)
(-0.002392 0 0)
(-0.00239206 0 0)
(-0.00239213 0 0)
(-0.0023922 0 0)
(-0.00239226 0 0)
(-0.00239233 0 0)
(-0.0023924 0 0)
(-0.00239246 0 0)
(-0.00239253 0 0)
(-0.0023926 0 0)
(-0.00239266 0 0)
(-0.00239273 0 0)
(-0.0023928 0 0)
(-0.00239287 0 0)
(-0.00239293 0 0)
(-0.002393 0 0)
(-0.00239307 0 0)
(-0.00239314 0 0)
(-0.00239321 0 0)
(-0.00239328 0 0)
(-0.00239335 0 0)
(-0.00239342 0 0)
(-0.00239349 0 0)
(-0.00239356 0 0)
(-0.00239363 0 0)
(-0.0023937 0 0)
(-0.00239377 0 0)
(-0.00239384 0 0)
(-0.00239391 0 0)
(-0.00239398 0 0)
(-0.00239405 0 0)
(-0.00239412 0 0)
(-0.00239419 0 0)
(-0.00239426 0 0)
(-0.00239433 0 0)
(-0.0023944 0 0)
(-0.00239447 0 0)
(-0.00239455 0 0)
(-0.00239462 0 0)
(-0.00239469 0 0)
(-0.00239476 0 0)
(-0.00239483 0 0)
(-0.0023949 0 0)
(-0.00239498 0 0)
(-0.00239505 0 0)
(-0.00239512 0 0)
(-0.00239519 0 0)
(-0.00239526 0 0)
(-0.00239533 0 0)
(-0.00239541 0 0)
(-0.00239548 0 0)
(-0.00239555 0 0)
(-0.00239562 0 0)
(-0.00239569 0 0)
(-0.00239576 0 0)
(-0.00239583 0 0)
(-0.0023959 0 0)
(-0.00239597 0 0)
(-0.00239604 0 0)
(-0.00239611 0 0)
(-0.00239618 0 0)
(-0.00239625 0 0)
(-0.00239632 0 0)
(-0.00239639 0 0)
(-0.00239646 0 0)
(-0.00239653 0 0)
(-0.0023966 0 0)
(-0.00239667 0 0)
(-0.00239674 0 0)
(-0.00239681 0 0)
(-0.00239688 0 0)
(-0.00239694 0 0)
(-0.00239701 0 0)
(-0.00239708 0 0)
(-0.00239715 0 0)
(-0.00239722 0 0)
(-0.00239728 0 0)
(-0.00239735 0 0)
(-0.00239742 0 0)
(-0.00239748 0 0)
(-0.00239755 0 0)
(-0.00239762 0 0)
(-0.00239769 0 0)
(-0.00239775 0 0)
(-0.00239782 0 0)
(-0.00239788 0 0)
(-0.00239795 0 0)
(-0.00239802 0 0)
(-0.00239808 0 0)
(-0.00239815 0 0)
(-0.00239821 0 0)
(-0.00239828 0 0)
(-0.00239835 0 0)
(-0.00239841 0 0)
(-0.00239848 0 0)
(-0.00239854 0 0)
(-0.00239861 0 0)
(-0.00239868 0 0)
(-0.00239874 0 0)
(-0.00239881 0 0)
(-0.00239888 0 0)
(-0.00239894 0 0)
(-0.00239901 0 0)
(-0.00239908 0 0)
(-0.00239914 0 0)
(-0.00239921 0 0)
(-0.00239928 0 0)
(-0.00239935 0 0)
(-0.00239941 0 0)
(-0.00239948 0 0)
(-0.00239955 0 0)
(-0.00239962 0 0)
(-0.00239969 0 0)
(-0.00239975 0 0)
(-0.00239982 0 0)
(-0.00239989 0 0)
(-0.00239996 0 0)
(-0.00240003 0 0)
(-0.0024001 0 0)
(-0.00240017 0 0)
(-0.00240024 0 0)
(-0.00240031 0 0)
(-0.00240038 0 0)
(-0.00240045 0 0)
(-0.00240052 0 0)
(-0.00240059 0 0)
(-0.00240066 0 0)
(-0.00240073 0 0)
(-0.0024008 0 0)
(-0.00240087 0 0)
(-0.00240094 0 0)
(-0.00240102 0 0)
(-0.00240109 0 0)
(-0.00240116 0 0)
(-0.00240123 0 0)
(-0.0024013 0 0)
(-0.00240137 0 0)
(-0.00240144 0 0)
(-0.00240152 0 0)
(-0.00240159 0 0)
(-0.00240166 0 0)
(-0.00240173 0 0)
(-0.0024018 0 0)
(-0.00240187 0 0)
(-0.00240195 0 0)
(-0.00240202 0 0)
(-0.00240209 0 0)
(-0.00240216 0 0)
(-0.00240223 0 0)
(-0.0024023 0 0)
(-0.00240238 0 0)
(-0.00240245 0 0)
(-0.00240252 0 0)
(-0.00240259 0 0)
(-0.00240266 0 0)
(-0.00240274 0 0)
(-0.00240281 0 0)
(-0.00240288 0 0)
(-0.00240295 0 0)
(-0.00240302 0 0)
(-0.0024031 0 0)
(-0.00240317 0 0)
(-0.00240324 0 0)
(-0.00240331 0 0)
(-0.00240339 0 0)
(-0.00240346 0 0)
(-0.00240353 0 0)
(-0.0024036 0 0)
(-0.00240367 0 0)
(-0.00240375 0 0)
(-0.00240382 0 0)
(-0.00240389 0 0)
(-0.00240397 0 0)
(-0.00240404 0 0)
(-0.00240411 0 0)
(-0.00240418 0 0)
(-0.00240426 0 0)
(-0.00240433 0 0)
(-0.0024044 0 0)
(-0.00240448 0 0)
(-0.00240455 0 0)
(-0.00240463 0 0)
(-0.0024047 0 0)
(-0.00240477 0 0)
(-0.00240485 0 0)
(-0.00240492 0 0)
(-0.00240499 0 0)
(-0.00240507 0 0)
(-0.00240514 0 0)
(-0.00240522 0 0)
(-0.00240529 0 0)
(-0.00240536 0 0)
(-0.00240544 0 0)
(-0.00240551 0 0)
(-0.00240559 0 0)
(-0.00240566 0 0)
(-0.00240574 0 0)
(-0.00240581 0 0)
(-0.00240588 0 0)
(-0.00240596 0 0)
(-0.00240603 0 0)
(-0.0024061 0 0)
(-0.00240618 0 0)
(-0.00240625 0 0)
(-0.00240632 0 0)
(-0.0024064 0 0)
(-0.00240647 0 0)
(-0.00240654 0 0)
(-0.00240662 0 0)
(-0.00240669 0 0)
(-0.00240676 0 0)
(-0.00240683 0 0)
(-0.0024069 0 0)
(-0.00240697 0 0)
(-0.00240704 0 0)
(-0.00240712 0 0)
(-0.00240719 0 0)
(-0.00240726 0 0)
(-0.00240733 0 0)
(-0.0024074 0 0)
(-0.00240747 0 0)
(-0.00240754 0 0)
(-0.0024076 0 0)
(-0.00240767 0 0)
(-0.00240774 0 0)
(-0.00240781 0 0)
(-0.00240788 0 0)
(-0.00240795 0 0)
(-0.00240802 0 0)
(-0.00240809 0 0)
(-0.00240816 0 0)
(-0.00240822 0 0)
(-0.00240829 0 0)
(-0.00240836 0 0)
(-0.00240843 0 0)
(-0.0024085 0 0)
(-0.00240857 0 0)
(-0.00240864 0 0)
(-0.00240871 0 0)
(-0.00240878 0 0)
(-0.00240885 0 0)
(-0.00240892 0 0)
(-0.00240899 0 0)
(-0.00240906 0 0)
(-0.00240913 0 0)
(-0.0024092 0 0)
(-0.00240928 0 0)
(-0.00240935 0 0)
(-0.00240942 0 0)
(-0.0024095 0 0)
(-0.00240957 0 0)
(-0.00240964 0 0)
(-0.00240972 0 0)
(-0.0024098 0 0)
(-0.00240987 0 0)
(-0.00240995 0 0)
(-0.00241003 0 0)
(-0.0024101 0 0)
(-0.00241018 0 0)
(-0.00241026 0 0)
(-0.00241034 0 0)
(-0.00241042 0 0)
(-0.0024105 0 0)
(-0.00241058 0 0)
(-0.00241066 0 0)
(-0.00241074 0 0)
(-0.00241082 0 0)
(-0.0024109 0 0)
(-0.00241098 0 0)
(-0.00241107 0 0)
(-0.00241115 0 0)
(-0.00241123 0 0)
(-0.00241131 0 0)
(-0.00241139 0 0)
(-0.00241147 0 0)
(-0.00241156 0 0)
(-0.00241164 0 0)
(-0.00241172 0 0)
(-0.0024118 0 0)
(-0.00241188 0 0)
(-0.00241196 0 0)
(-0.00241204 0 0)
(-0.00241212 0 0)
(-0.0024122 0 0)
(-0.00241228 0 0)
(-0.00241236 0 0)
(-0.00241244 0 0)
(-0.00241252 0 0)
(-0.00241259 0 0)
(-0.00241267 0 0)
(-0.00241275 0 0)
(-0.00241282 0 0)
(-0.0024129 0 0)
(-0.00241298 0 0)
(-0.00241305 0 0)
(-0.00241313 0 0)
(-0.0024132 0 0)
(-0.00241328 0 0)
(-0.00241335 0 0)
(-0.00241342 0 0)
(-0.0024135 0 0)
(-0.00241357 0 0)
(-0.00241365 0 0)
(-0.00241372 0 0)
(-0.00241379 0 0)
(-0.00241387 0 0)
(-0.00241394 0 0)
(-0.00241402 0 0)
(-0.00241409 0 0)
(-0.00241417 0 0)
(-0.00241424 0 0)
(-0.00241432 0 0)
(-0.0024144 0 0)
(-0.00241447 0 0)
(-0.00241455 0 0)
(-0.00241463 0 0)
(-0.00241471 0 0)
(-0.00241479 0 0)
(-0.00241486 0 0)
(-0.00241494 0 0)
(-0.00241502 0 0)
(-0.00241511 0 0)
(-0.00241519 0 0)
(-0.00241527 0 0)
(-0.00241535 0 0)
(-0.00241543 0 0)
(-0.00241552 0 0)
(-0.0024156 0 0)
(-0.00241568 0 0)
(-0.00241577 0 0)
(-0.00241585 0 0)
(-0.00241593 0 0)
(-0.00241602 0 0)
(-0.0024161 0 0)
(-0.00241619 0 0)
(-0.00241627 0 0)
(-0.00241636 0 0)
(-0.00241644 0 0)
(-0.00241652 0 0)
(-0.00241661 0 0)
(-0.00241669 0 0)
(-0.00241677 0 0)
(-0.00241685 0 0)
(-0.00241693 0 0)
(-0.00241702 0 0)
(-0.0024171 0 0)
(-0.00241717 0 0)
(-0.00241725 0 0)
(-0.00241733 0 0)
(-0.00241741 0 0)
(-0.00241749 0 0)
(-0.00241756 0 0)
(-0.00241764 0 0)
(-0.00241771 0 0)
(-0.00241778 0 0)
(-0.00241786 0 0)
(-0.00241793 0 0)
(-0.002418 0 0)
(-0.00241807 0 0)
(-0.00241814 0 0)
(-0.00241821 0 0)
(-0.00241827 0 0)
(-0.00241834 0 0)
(-0.00241841 0 0)
(-0.00241847 0 0)
(-0.00241854 0 0)
(-0.0024186 0 0)
(-0.00241867 0 0)
(-0.00241873 0 0)
(-0.00241879 0 0)
(-0.00241885 0 0)
(-0.00241891 0 0)
(-0.00241898 0 0)
(-0.00241904 0 0)
(-0.0024191 0 0)
(-0.00241916 0 0)
(-0.00241922 0 0)
(-0.00241929 0 0)
(-0.00241935 0 0)
(-0.00241941 0 0)
(-0.00241947 0 0)
(-0.00241954 0 0)
(-0.00241961 0 0)
(-0.00241967 0 0)
(-0.00241974 0 0)
(-0.00241981 0 0)
(-0.00241988 0 0)
(-0.00241995 0 0)
(-0.00242002 0 0)
(-0.00242009 0 0)
(-0.00242017 0 0)
(-0.00242024 0 0)
(-0.00242032 0 0)
(-0.0024204 0 0)
(-0.00242048 0 0)
(-0.00242056 0 0)
(-0.00242065 0 0)
(-0.00242073 0 0)
(-0.00242082 0 0)
(-0.00242091 0 0)
(-0.002421 0 0)
(-0.00242109 0 0)
(-0.00242118 0 0)
(-0.00242127 0 0)
(-0.00242137 0 0)
(-0.00242147 0 0)
(-0.00242156 0 0)
(-0.00242166 0 0)
(-0.00242176 0 0)
(-0.00242186 0 0)
(-0.00242196 0 0)
(-0.00242206 0 0)
(-0.00242216 0 0)
(-0.00242226 0 0)
(-0.00242237 0 0)
(-0.00242247 0 0)
(-0.00242257 0 0)
(-0.00242267 0 0)
(-0.00242277 0 0)
(-0.00242287 0 0)
(-0.00242297 0 0)
(-0.00242307 0 0)
(-0.00242317 0 0)
(-0.00242327 0 0)
(-0.00242337 0 0)
(-0.00242347 0 0)
(-0.00242356 0 0)
(-0.00242366 0 0)
(-0.00242376 0 0)
(-0.00242385 0 0)
(-0.00242395 0 0)
(-0.00242404 0 0)
(-0.00242413 0 0)
(-0.00242422 0 0)
(-0.00242432 0 0)
(-0.00242441 0 0)
(-0.0024245 0 0)
(-0.00242459 0 0)
(-0.00242468 0 0)
(-0.00242476 0 0)
(-0.00242485 0 0)
(-0.00242494 0 0)
(-0.00242503 0 0)
(-0.00242511 0 0)
(-0.00242519 0 0)
(-0.00242528 0 0)
(-0.00242536 0 0)
(-0.00242544 0 0)
(-0.00242552 0 0)
(-0.0024256 0 0)
(-0.00242568 0 0)
(-0.00242575 0 0)
(-0.00242583 0 0)
(-0.0024259 0 0)
(-0.00242597 0 0)
(-0.00242604 0 0)
(-0.00242611 0 0)
(-0.00242617 0 0)
(-0.00242624 0 0)
(-0.0024263 0 0)
(-0.00242636 0 0)
(-0.00242642 0 0)
(-0.00242648 0 0)
(-0.00242653 0 0)
(-0.00242659 0 0)
(-0.00242664 0 0)
(-0.00242669 0 0)
(-0.00242674 0 0)
(-0.00242679 0 0)
(-0.00242684 0 0)
(-0.00242689 0 0)
(-0.00242694 0 0)
(-0.00242699 0 0)
(-0.00242703 0 0)
(-0.00242708 0 0)
(-0.00242713 0 0)
(-0.00242718 0 0)
(-0.00242723 0 0)
(-0.00242729 0 0)
(-0.00242734 0 0)
(-0.00242739 0 0)
(-0.00242745 0 0)
(-0.00242751 0 0)
(-0.00242757 0 0)
(-0.00242763 0 0)
(-0.00242769 0 0)
(-0.00242775 0 0)
(-0.00242782 0 0)
(-0.00242788 0 0)
(-0.00242795 0 0)
(-0.00242801 0 0)
(-0.00242809 0 0)
(-0.00242816 0 0)
(-0.00242822 0 0)
(-0.0024283 0 0)
(-0.00242837 0 0)
(-0.00242844 0 0)
(-0.00242851 0 0)
(-0.00242859 0 0)
(-0.00242866 0 0)
(-0.00242874 0 0)
(-0.00242881 0 0)
(-0.00242889 0 0)
(-0.00242897 0 0)
(-0.00242906 0 0)
(-0.00242914 0 0)
(-0.00242923 0 0)
(-0.00242932 0 0)
(-0.00242941 0 0)
(-0.0024295 0 0)
(-0.0024296 0 0)
(-0.0024297 0 0)
(-0.0024298 0 0)
(-0.00242991 0 0)
(-0.00243002 0 0)
(-0.00243012 0 0)
(-0.00243023 0 0)
(-0.00243034 0 0)
(-0.00243045 0 0)
(-0.00243056 0 0)
(-0.00243067 0 0)
(-0.00243077 0 0)
(-0.00243087 0 0)
(-0.00243095 0 0)
(-0.00243104 0 0)
(-0.00243112 0 0)
(-0.00243119 0 0)
(-0.00243125 0 0)
(-0.0024313 0 0)
(-0.00243134 0 0)
(-0.00243137 0 0)
(-0.00243139 0 0)
(-0.0024314 0 0)
(-0.0024314 0 0)
(-0.0024314 0 0)
(-0.00243138 0 0)
(-0.00243136 0 0)
(-0.00243134 0 0)
(-0.00243131 0 0)
(-0.00243128 0 0)
(-0.00243126 0 0)
(-0.00243123 0 0)
(-0.00243121 0 0)
(-0.0024312 0 0)
(-0.0024312 0 0)
(-0.00243121 0 0)
(-0.00243123 0 0)
(-0.00243126 0 0)
(-0.00243131 0 0)
(-0.00243138 0 0)
(-0.00243145 0 0)
(-0.00243154 0 0)
(-0.00243165 0 0)
(-0.00243176 0 0)
(-0.00243189 0 0)
(-0.00243201 0 0)
(-0.00243215 0 0)
(-0.00243227 0 0)
(-0.00243239 0 0)
(-0.0024325 0 0)
(-0.00243259 0 0)
(-0.00243266 0 0)
(-0.00243269 0 0)
(-0.0024327 0 0)
(-0.00243268 0 0)
(-0.00243259 0 0)
(-0.00243251 0 0)
(-0.00243238 0 0)
(-0.00243219 0 0)
(-0.00243197 0 0)
(-0.00243173 0 0)
(-0.00243143 0 0)
(-0.00243112 0 0)
(-0.00243078 0 0)
(-0.00243041 0 0)
(-0.00243005 0 0)
(-0.00242967 0 0)
(-0.0024293 0 0)
(-0.00242895 0 0)
(-0.00242859 0 0)
(-0.00242828 0 0)
(-0.00242797 0 0)
(-0.0024277 0 0)
(-0.00242746 0 0)
(-0.0024272 0 0)
(-0.00242703 0 0)
(-0.00242676 0 0)
(-0.00242653 0 0)
(-0.00242627 0 0)
(-0.00242597 0 0)
(-0.00242567 0 0)
(-0.00242535 0 0)
(-0.00242505 0 0)
(-0.00242481 0 0)
(-0.00242463 0 0)
(-0.00242448 0 0)
(-0.00242449 0 0)
(-0.00242441 0 0)
(-0.0024242 0 0)
(-0.0024237 0 0)
(-0.00242259 0 0)
(-0.00242067 0 0)
(-0.00241759 0 0)
(-0.00241312 0 0)
(-0.00240697 0 0)
(-0.00239903 0 0)
(-0.00238831 0 0)
(-0.00237564 0 0)
(-0.00235637 0 0)
(-0.00233436 0 0)
(-0.00229237 0 0)
(-0.0022268 0 0)
(-0.00219413 0 0)
(-0.00200651 0 0)
(-0.00180661 0 0)
(0.000129039 0 0)
(0.0158385 0 0)
(0.0469371 0 0)
(0.0750018 0 0)
(0.0916532 0 0)
(0.100164 0 0)
(0.104256 0 0)
(0.106204 0 0)
(0.107053 0 0)
(0.107578 0 0)
(0.107778 0 0)
(0.107838 0 0)
(0.107969 0 0)
(0.108002 0 0)
(0.108008 0 0)
(0.107961 0 0)
(0.108039 0 0)
(0.108054 0 0)
(0.107946 0 0)
(0.108078 0 0)
(0.108049 0 0)
(0.107945 0 0)
(0.108046 0 0)
(0.108087 0 0)
(0.107938 0 0)
(0.10803 0 0)
(0.108085 0 0)
(0.10796 0 0)
(0.108018 0 0)
(0.108077 0 0)
(0.108021 0 0)
(0.107949 0 0)
(0.10806 0 0)
(0.10805 0 0)
(0.108019 0 0)
)
;

boundaryField
{
    fixedWall
    {
        type            fixedValue;
        value           uniform (0 0 0);
    }
    outlet
    {
        type            pressureInletOutletVelocity;
        value           uniform (0.108019 0 0);
    }
    defaultFaces
    {
        type            empty;
    }
}


// ************************************************************************* //
