/*--------------------------------*- C++ -*----------------------------------*\
| =========                 |                                                 |
| \\      /  F ield         | OpenFOAM: The Open Source CFD Toolbox           |
|  \\    /   O peration     | Version:  2406                                  |
|   \\  /    A nd           | Website:  www.openfoam.com                      |
|    \\/     M anipulation  |                                                 |
\*---------------------------------------------------------------------------*/
FoamFile
{
    version     2.0;
    format      ascii;
    arch        "LSB;label=32;scalar=64";
    class       volScalarField;
    location    "3";
    object      CO2;
}
// * * * * * * * * * * * * * * * * * * * * * * * * * * * * * * * * * * * * * //

dimensions      [0 0 0 0 0 0 0];

internalField   nonuniform List<scalar> 
1000
(
0.0709257
0.0709257
0.0709257
0.0709257
0.0709257
0.0709257
0.0709257
0.0709258
0.0709258
0.0709258
0.0709258
0.0709258
0.0709258
0.0709258
0.0709258
0.0709259
0.0709259
0.0709259
0.0709259
0.0709259
0.0709259
0.070926
0.070926
0.070926
0.070926
0.070926
0.070926
0.0709261
0.0709261
0.0709261
0.0709261
0.0709261
0.0709261
0.0709261
0.0709262
0.0709262
0.0709262
0.0709262
0.0709262
0.0709262
0.0709262
0.0709262
0.0709262
0.0709263
0.0709263
0.0709263
0.0709263
0.0709263
0.0709263
0.0709263
0.0709263
0.0709263
0.0709263
0.0709263
0.0709263
0.0709263
0.0709263
0.0709263
0.0709263
0.0709263
0.0709263
0.0709263
0.0709263
0.0709263
0.0709263
0.0709263
0.0709263
0.0709263
0.0709263
0.0709263
0.0709263
0.0709263
0.0709263
0.0709263
0.0709263
0.0709263
0.0709263
0.0709263
0.0709263
0.0709263
0.0709263
0.0709263
0.0709263
0.0709263
0.0709263
0.0709263
0.0709263
0.0709263
0.0709263
0.0709263
0.0709263
0.0709263
0.0709263
0.0709263
0.0709263
0.0709263
0.0709263
0.0709263
0.0709263
0.0709263
0.0709263
0.0709263
0.0709263
0.0709263
0.0709263
0.0709263
0.0709263
0.0709263
0.0709263
0.0709263
0.0709263
0.0709263
0.0709263
0.0709263
0.0709263
0.0709263
0.0709263
0.0709263
0.0709263
0.0709263
0.0709263
0.0709263
0.0709263
0.0709263
0.0709263
0.0709263
0.0709263
0.0709263
0.0709263
0.0709262
0.0709262
0.0709262
0.0709262
0.0709262
0.0709262
0.0709262
0.0709262
0.0709262
0.0709262
0.0709262
0.0709262
0.0709262
0.0709262
0.0709262
0.0709262
0.0709262
0.0709262
0.0709262
0.0709262
0.0709262
0.0709262
0.0709262
0.0709262
0.0709262
0.0709262
0.0709262
0.0709262
0.0709262
0.0709262
0.0709262
0.0709262
0.0709262
0.0709262
0.0709262
0.0709262
0.0709262
0.0709262
0.0709262
0.0709262
0.0709262
0.0709262
0.0709262
0.0709262
0.0709262
0.0709262
0.0709262
0.0709262
0.0709261
0.0709261
0.0709261
0.0709261
0.0709261
0.0709261
0.0709261
0.0709261
0.0709261
0.0709261
0.0709261
0.0709261
0.0709261
0.0709261
0.0709261
0.0709261
0.0709261
0.0709261
0.0709261
0.0709261
0.0709261
0.0709261
0.0709261
0.0709261
0.0709261
0.0709261
0.0709261
0.0709261
0.0709261
0.0709261
0.0709261
0.0709261
0.0709261
0.0709261
0.0709261
0.070926
0.070926
0.070926
0.070926
0.070926
0.070926
0.070926
0.070926
0.070926
0.070926
0.070926
0.070926
0.070926
0.070926
0.070926
0.070926
0.070926
0.070926
0.070926
0.070926
0.070926
0.070926
0.070926
0.070926
0.070926
0.070926
0.070926
0.070926
0.0709259
0.0709259
0.0709259
0.0709259
0.0709259
0.0709259
0.0709259
0.0709259
0.0709259
0.0709259
0.0709259
0.0709259
0.0709259
0.0709259
0.0709259
0.0709259
0.0709259
0.0709259
0.0709259
0.0709259
0.0709259
0.0709259
0.0709258
0.0709258
0.0709258
0.0709258
0.0709258
0.0709258
0.0709258
0.0709258
0.0709258
0.0709258
0.0709258
0.0709258
0.0709258
0.0709258
0.0709258
0.0709258
0.0709258
0.0709258
0.0709258
0.0709257
0.0709257
0.0709257
0.0709257
0.0709257
0.0709257
0.0709257
0.0709257
0.0709257
0.0709257
0.0709257
0.0709257
0.0709257
0.0709257
0.0709257
0.0709256
0.0709256
0.0709256
0.0709256
0.0709256
0.0709256
0.0709256
0.0709256
0.0709256
0.0709256
0.0709256
0.0709256
0.0709256
0.0709255
0.0709255
0.0709255
0.0709255
0.0709255
0.0709255
0.0709255
0.0709255
0.0709255
0.0709255
0.0709255
0.0709254
0.0709254
0.0709254
0.0709254
0.0709254
0.0709254
0.0709254
0.0709254
0.0709254
0.0709254
0.0709253
0.0709253
0.0709253
0.0709253
0.0709253
0.0709253
0.0709253
0.0709253
0.0709252
0.0709252
0.0709252
0.0709252
0.0709252
0.0709252
0.0709252
0.0709252
0.0709251
0.0709251
0.0709251
0.0709251
0.0709251
0.0709251
0.070925
0.070925
0.070925
0.070925
0.070925
0.070925
0.0709249
0.0709249
0.0709249
0.0709249
0.0709249
0.0709249
0.0709248
0.0709248
0.0709248
0.0709248
0.0709248
0.0709247
0.0709247
0.0709247
0.0709247
0.0709246
0.0709246
0.0709246
0.0709246
0.0709245
0.0709245
0.0709245
0.0709245
0.0709244
0.0709244
0.0709244
0.0709243
0.0709243
0.0709243
0.0709242
0.0709242
0.0709242
0.0709241
0.0709241
0.0709241
0.070924
0.070924
0.070924
0.0709239
0.0709239
0.0709238
0.0709238
0.0709237
0.0709237
0.0709236
0.0709236
0.0709235
0.0709235
0.0709234
0.0709234
0.0709233
0.0709232
0.0709232
0.0709231
0.070923
0.070923
0.0709229
0.0709228
0.0709227
0.0709227
0.0709226
0.0709225
0.0709224
0.0709223
0.0709222
0.0709221
0.070922
0.0709219
0.0709217
0.0709216
0.0709215
0.0709213
0.0709212
0.070921
0.0709209
0.0709207
0.0709205
0.0709203
0.0709201
0.0709199
0.0709196
0.0709194
0.0709191
0.0709188
0.0709185
0.0709181
0.0709178
0.0709174
0.0709169
0.0709164
0.0709159
0.0709153
0.0709147
0.070914
0.0709132
0.0709123
0.0709113
0.0709101
0.0709088
0.0709073
0.0709055
0.0709034
0.0709009
0.0708978
0.070894
0.0708892
0.0708831
0.0708748
0.0708632
0.0708459
0.0708177
0.0707659
0.070654
0.0703577
0.0694058
0.0658615
0.0495512
0.0240387
0.0116258
0.00567167
0.00278995
0.00138094
0.000686492
0.000342285
0.00017101
8.55551e-05
4.28393e-05
2.14608e-05
1.0753e-05
5.38757e-06
2.69873e-06
1.35137e-06
6.764e-07
3.38417e-07
1.6925e-07
8.46197e-08
4.2319e-08
2.11595e-08
1.06152e-08
5.3517e-09
2.71865e-09
1.41131e-09
9.60358e-10
6.37754e-10
3.78425e-10
2.4934e-10
1.83372e-10
1.57916e-10
1.43199e-10
1.3447e-10
1.28148e-10
1.24906e-10
1.23359e-10
1.22512e-10
1.21895e-10
1.21608e-10
1.21448e-10
1.21347e-10
1.21295e-10
1.21274e-10
1.21259e-10
1.21252e-10
1.21246e-10
1.21244e-10
1.21242e-10
1.21241e-10
1.21241e-10
1.21241e-10
1.21241e-10
1.21241e-10
1.21242e-10
1.21242e-10
1.21242e-10
1.21243e-10
1.21243e-10
1.21243e-10
1.21243e-10
1.21244e-10
1.21244e-10
1.21244e-10
1.21245e-10
1.21245e-10
1.21245e-10
1.21246e-10
1.21246e-10
1.21246e-10
1.21247e-10
1.21247e-10
1.21247e-10
1.21247e-10
1.21248e-10
1.21248e-10
1.21249e-10
1.21249e-10
1.21249e-10
1.21249e-10
1.2125e-10
1.2125e-10
1.2125e-10
1.21251e-10
1.21251e-10
1.21252e-10
1.21252e-10
1.21252e-10
1.21252e-10
1.21253e-10
1.21253e-10
1.21253e-10
1.21254e-10
1.21254e-10
1.21254e-10
1.21255e-10
1.21255e-10
1.21255e-10
1.21256e-10
1.21256e-10
1.21256e-10
1.21257e-10
1.21257e-10
1.21257e-10
1.21258e-10
1.21258e-10
1.21258e-10
1.21258e-10
1.21259e-10
1.21259e-10
1.21259e-10
1.2126e-10
1.2126e-10
1.2126e-10
1.21261e-10
1.21261e-10
1.21261e-10
1.21262e-10
1.21262e-10
1.21262e-10
1.21263e-10
1.21263e-10
1.21263e-10
1.21264e-10
1.21264e-10
1.21264e-10
1.21265e-10
1.21265e-10
1.21265e-10
1.21266e-10
1.21266e-10
1.21266e-10
1.21267e-10
1.21267e-10
1.21267e-10
1.21267e-10
1.21268e-10
1.21268e-10
1.21268e-10
1.21269e-10
1.21269e-10
1.2127e-10
1.2127e-10
1.2127e-10
1.21271e-10
1.21271e-10
1.21271e-10
1.21272e-10
1.21272e-10
1.21272e-10
1.21273e-10
1.21273e-10
1.21273e-10
1.21274e-10
1.21274e-10
1.21274e-10
1.21275e-10
1.21275e-10
1.21275e-10
1.21275e-10
1.21276e-10
1.21276e-10
1.21276e-10
1.21277e-10
1.21277e-10
1.21277e-10
1.21278e-10
1.21278e-10
1.21278e-10
1.21279e-10
1.21279e-10
1.21279e-10
1.2128e-10
1.2128e-10
1.2128e-10
1.21281e-10
1.21281e-10
1.21281e-10
1.21282e-10
1.21282e-10
1.21282e-10
1.21283e-10
1.21283e-10
1.21283e-10
1.21284e-10
1.21284e-10
1.21284e-10
1.21285e-10
1.21285e-10
1.21285e-10
1.21286e-10
1.21286e-10
1.21286e-10
1.21286e-10
1.21287e-10
1.21287e-10
1.21287e-10
1.21288e-10
1.21288e-10
1.21289e-10
1.21289e-10
1.21289e-10
1.2129e-10
1.2129e-10
1.21291e-10
1.21291e-10
1.21291e-10
1.21292e-10
1.21292e-10
1.21292e-10
1.21293e-10
1.21293e-10
1.21293e-10
1.21294e-10
1.21294e-10
1.21294e-10
1.21295e-10
1.21295e-10
1.21295e-10
1.21296e-10
1.21296e-10
1.21296e-10
1.21297e-10
1.21297e-10
1.21297e-10
1.21298e-10
1.21298e-10
1.21298e-10
1.21299e-10
1.21299e-10
1.21299e-10
1.213e-10
1.213e-10
1.213e-10
1.21301e-10
1.21301e-10
1.21301e-10
1.21302e-10
1.21302e-10
1.21302e-10
1.21303e-10
1.21303e-10
1.21303e-10
1.21304e-10
1.21304e-10
1.21304e-10
1.21305e-10
1.21305e-10
1.21306e-10
1.21306e-10
1.21306e-10
1.21306e-10
1.21307e-10
1.21307e-10
1.21307e-10
1.21308e-10
1.21308e-10
1.21308e-10
1.21309e-10
1.21309e-10
1.2131e-10
1.2131e-10
1.2131e-10
1.21311e-10
1.21311e-10
1.21311e-10
1.21312e-10
1.21312e-10
1.21312e-10
1.21313e-10
1.21313e-10
1.21313e-10
1.21314e-10
1.21314e-10
1.21314e-10
1.21315e-10
1.21315e-10
1.21315e-10
1.21316e-10
1.21316e-10
1.21317e-10
1.21317e-10
1.21317e-10
1.21318e-10
1.21318e-10
1.21318e-10
1.21319e-10
1.21319e-10
1.21319e-10
1.2132e-10
1.2132e-10
1.2132e-10
1.21321e-10
1.21321e-10
1.21321e-10
1.21322e-10
1.21322e-10
1.21322e-10
1.21323e-10
1.21323e-10
1.21323e-10
1.21324e-10
1.21324e-10
1.21325e-10
1.21325e-10
1.21325e-10
1.21326e-10
1.21326e-10
1.21326e-10
1.21326e-10
1.21327e-10
1.21327e-10
1.21328e-10
1.21328e-10
1.21328e-10
1.21329e-10
1.21329e-10
1.21329e-10
1.2133e-10
1.2133e-10
1.2133e-10
1.21331e-10
1.21331e-10
1.21331e-10
1.21332e-10
1.21332e-10
1.21333e-10
1.21333e-10
1.21333e-10
1.21333e-10
1.21334e-10
1.21334e-10
1.21335e-10
1.21335e-10
1.21335e-10
1.21336e-10
1.21336e-10
1.21336e-10
1.21337e-10
1.21337e-10
1.21337e-10
1.21338e-10
1.21338e-10
1.21338e-10
1.21339e-10
1.21339e-10
1.2134e-10
1.2134e-10
1.2134e-10
1.21341e-10
1.21341e-10
1.21342e-10
1.21342e-10
1.21342e-10
1.21342e-10
1.21343e-10
1.21343e-10
1.21343e-10
1.21344e-10
1.21344e-10
1.21344e-10
1.21345e-10
1.21345e-10
1.21346e-10
1.21346e-10
1.21346e-10
1.21347e-10
1.21347e-10
1.21347e-10
1.21348e-10
1.21348e-10
1.21348e-10
1.21349e-10
1.21349e-10
1.21349e-10
1.2135e-10
1.2135e-10
1.21351e-10
1.21351e-10
1.21351e-10
1.21351e-10
1.21352e-10
1.21352e-10
1.21353e-10
1.21353e-10
1.21353e-10
1.21354e-10
1.21354e-10
1.21354e-10
1.21355e-10
1.21355e-10
1.21355e-10
1.21356e-10
1.21356e-10
1.21357e-10
1.21357e-10
1.21357e-10
1.21358e-10
1.21358e-10
1.21358e-10
1.21359e-10
1.21359e-10
1.21359e-10
1.2136e-10
1.2136e-10
1.2136e-10
1.21361e-10
1.21361e-10
1.21361e-10
1.21362e-10
1.21362e-10
1.21363e-10
1.21363e-10
1.21363e-10
1.21364e-10
1.21364e-10
1.21364e-10
1.21365e-10
1.21365e-10
1.21365e-10
1.21366e-10
1.21366e-10
1.21366e-10
1.21367e-10
1.21367e-10
1.21368e-10
1.21368e-10
1.21368e-10
1.21369e-10
1.21369e-10
1.21369e-10
1.2137e-10
1.2137e-10
1.2137e-10
1.21371e-10
1.21371e-10
1.21372e-10
1.21372e-10
1.21372e-10
1.21373e-10
1.21373e-10
1.21373e-10
1.21374e-10
1.21374e-10
1.21374e-10
1.21375e-10
1.21375e-10
1.21375e-10
1.21376e-10
1.21376e-10
1.21376e-10
1.21377e-10
1.21377e-10
1.21378e-10
1.21378e-10
1.21378e-10
1.21379e-10
1.21379e-10
1.21379e-10
1.2138e-10
1.2138e-10
1.2138e-10
1.21381e-10
1.21381e-10
1.21381e-10
1.21382e-10
1.21382e-10
1.21382e-10
1.21383e-10
1.21383e-10
1.21384e-10
1.21384e-10
1.21385e-10
1.21385e-10
1.21385e-10
1.21386e-10
1.21386e-10
1.21386e-10
1.21387e-10
1.21387e-10
1.21387e-10
1.21388e-10
1.21388e-10
1.21389e-10
1.21389e-10
1.21389e-10
1.2139e-10
1.2139e-10
1.2139e-10
1.21391e-10
1.21391e-10
1.21391e-10
1.21392e-10
1.21392e-10
1.21392e-10
1.21393e-10
1.21393e-10
1.21393e-10
1.21394e-10
1.21394e-10
1.21394e-10
1.21395e-10
1.21395e-10
1.21396e-10
1.21396e-10
1.21396e-10
1.21396e-10
1.21397e-10
1.21397e-10
1.21398e-10
1.21398e-10
1.21398e-10
1.21399e-10
1.21399e-10
1.214e-10
1.214e-10
1.214e-10
1.21401e-10
1.21401e-10
1.21401e-10
1.21402e-10
1.21402e-10
1.21403e-10
1.21403e-10
1.21403e-10
1.21404e-10
)
;

boundaryField
{
    fixedWall
    {
        type            zeroGradient;
    }
    outlet
    {
        type            inletOutlet;
        inletValue      uniform 0;
        value           uniform 1.21404e-10;
    }
    defaultFaces
    {
        type            empty;
    }
}


// ************************************************************************* //
