/*--------------------------------*- C++ -*----------------------------------*\
| =========                 |                                                 |
| \\      /  F ield         | OpenFOAM: The Open Source CFD Toolbox           |
|  \\    /   O peration     | Version:  2406                                  |
|   \\  /    A nd           | Website:  www.openfoam.com                      |
|    \\/     M anipulation  |                                                 |
\*---------------------------------------------------------------------------*/
FoamFile
{
    version     2.0;
    format      ascii;
    arch        "LSB;label=32;scalar=64";
    class       volScalarField;
    location    "3";
    object      H2O;
}
// * * * * * * * * * * * * * * * * * * * * * * * * * * * * * * * * * * * * * //

dimensions      [0 0 0 0 0 0 0];

internalField   nonuniform List<scalar> 
1000
(
0.0580663
0.0580663
0.0580663
0.0580663
0.0580663
0.0580663
0.0580663
0.0580663
0.0580663
0.0580663
0.0580663
0.0580663
0.0580663
0.0580664
0.0580664
0.0580664
0.0580664
0.0580664
0.0580664
0.0580664
0.0580664
0.0580665
0.0580665
0.0580665
0.0580665
0.0580665
0.0580665
0.0580665
0.0580665
0.0580666
0.0580666
0.0580666
0.0580666
0.0580666
0.0580666
0.0580666
0.0580666
0.0580666
0.0580667
0.0580667
0.0580667
0.0580667
0.0580667
0.0580667
0.0580667
0.0580667
0.0580667
0.0580667
0.0580667
0.0580667
0.0580667
0.0580667
0.0580667
0.0580667
0.0580667
0.0580668
0.0580668
0.0580668
0.0580668
0.0580668
0.0580668
0.0580668
0.0580668
0.0580668
0.0580668
0.0580668
0.0580668
0.0580668
0.0580668
0.0580668
0.0580668
0.0580668
0.0580668
0.0580668
0.0580668
0.0580668
0.0580668
0.0580668
0.0580668
0.0580668
0.0580668
0.0580668
0.0580668
0.0580668
0.0580668
0.0580668
0.0580668
0.0580668
0.0580668
0.0580668
0.0580667
0.0580667
0.0580667
0.0580667
0.0580667
0.0580667
0.0580667
0.0580667
0.0580667
0.0580667
0.0580667
0.0580667
0.0580667
0.0580667
0.0580667
0.0580667
0.0580667
0.0580667
0.0580667
0.0580667
0.0580667
0.0580667
0.0580667
0.0580667
0.0580667
0.0580667
0.0580667
0.0580667
0.0580667
0.0580667
0.0580667
0.0580667
0.0580667
0.0580667
0.0580667
0.0580667
0.0580667
0.0580667
0.0580667
0.0580667
0.0580667
0.0580667
0.0580667
0.0580667
0.0580667
0.0580667
0.0580667
0.0580667
0.0580667
0.0580667
0.0580667
0.0580667
0.0580667
0.0580667
0.0580667
0.0580667
0.0580667
0.0580667
0.0580667
0.0580667
0.0580667
0.0580667
0.0580667
0.0580667
0.0580667
0.0580667
0.0580667
0.0580667
0.0580666
0.0580666
0.0580666
0.0580666
0.0580666
0.0580666
0.0580666
0.0580666
0.0580666
0.0580666
0.0580666
0.0580666
0.0580666
0.0580666
0.0580666
0.0580666
0.0580666
0.0580666
0.0580666
0.0580666
0.0580666
0.0580666
0.0580666
0.0580666
0.0580666
0.0580666
0.0580666
0.0580666
0.0580666
0.0580666
0.0580666
0.0580666
0.0580666
0.0580666
0.0580666
0.0580666
0.0580666
0.0580666
0.0580666
0.0580666
0.0580666
0.0580666
0.0580666
0.0580666
0.0580666
0.0580666
0.0580666
0.0580666
0.0580665
0.0580665
0.0580665
0.0580665
0.0580665
0.0580665
0.0580665
0.0580665
0.0580665
0.0580665
0.0580665
0.0580665
0.0580665
0.0580665
0.0580665
0.0580665
0.0580665
0.0580665
0.0580665
0.0580665
0.0580665
0.0580665
0.0580665
0.0580665
0.0580665
0.0580665
0.0580665
0.0580665
0.0580665
0.0580665
0.0580665
0.0580665
0.0580665
0.0580665
0.0580664
0.0580664
0.0580664
0.0580664
0.0580664
0.0580664
0.0580664
0.0580664
0.0580664
0.0580664
0.0580664
0.0580664
0.0580664
0.0580664
0.0580664
0.0580664
0.0580664
0.0580664
0.0580664
0.0580664
0.0580664
0.0580664
0.0580664
0.0580664
0.0580664
0.0580664
0.0580664
0.0580663
0.0580663
0.0580663
0.0580663
0.0580663
0.0580663
0.0580663
0.0580663
0.0580663
0.0580663
0.0580663
0.0580663
0.0580663
0.0580663
0.0580663
0.0580663
0.0580663
0.0580663
0.0580663
0.0580663
0.0580663
0.0580662
0.0580662
0.0580662
0.0580662
0.0580662
0.0580662
0.0580662
0.0580662
0.0580662
0.0580662
0.0580662
0.0580662
0.0580662
0.0580662
0.0580662
0.0580662
0.0580662
0.0580661
0.0580661
0.0580661
0.0580661
0.0580661
0.0580661
0.0580661
0.0580661
0.0580661
0.0580661
0.0580661
0.0580661
0.0580661
0.0580661
0.058066
0.058066
0.058066
0.058066
0.058066
0.058066
0.058066
0.058066
0.058066
0.058066
0.058066
0.058066
0.0580659
0.0580659
0.0580659
0.0580659
0.0580659
0.0580659
0.0580659
0.0580659
0.0580659
0.0580659
0.0580658
0.0580658
0.0580658
0.0580658
0.0580658
0.0580658
0.0580658
0.0580658
0.0580658
0.0580657
0.0580657
0.0580657
0.0580657
0.0580657
0.0580657
0.0580657
0.0580656
0.0580656
0.0580656
0.0580656
0.0580656
0.0580656
0.0580656
0.0580655
0.0580655
0.0580655
0.0580655
0.0580655
0.0580655
0.0580654
0.0580654
0.0580654
0.0580654
0.0580654
0.0580653
0.0580653
0.0580653
0.0580653
0.0580653
0.0580652
0.0580652
0.0580652
0.0580652
0.0580651
0.0580651
0.0580651
0.0580651
0.058065
0.058065
0.058065
0.0580649
0.0580649
0.0580649
0.0580648
0.0580648
0.0580648
0.0580647
0.0580647
0.0580647
0.0580646
0.0580646
0.0580646
0.0580645
0.0580645
0.0580644
0.0580644
0.0580643
0.0580643
0.0580642
0.0580642
0.0580641
0.0580641
0.058064
0.058064
0.0580639
0.0580638
0.0580638
0.0580637
0.0580636
0.0580635
0.0580635
0.0580634
0.0580633
0.0580632
0.0580631
0.058063
0.0580629
0.0580628
0.0580627
0.0580626
0.0580624
0.0580623
0.0580622
0.058062
0.0580618
0.0580617
0.0580615
0.0580613
0.0580611
0.0580608
0.0580606
0.0580603
0.0580601
0.0580598
0.0580594
0.0580591
0.0580587
0.0580582
0.0580578
0.0580572
0.0580566
0.058056
0.0580553
0.0580544
0.0580535
0.0580524
0.0580512
0.0580497
0.058048
0.0580459
0.0580434
0.0580403
0.0580364
0.0580313
0.0580246
0.0580151
0.0580009
0.0579778
0.0579354
0.0578438
0.0576012
0.056822
0.0539202
0.0405671
0.0196803
0.00951793
0.00464334
0.00228411
0.00113057
0.000562025
0.000280226
0.000140005
7.00432e-05
3.50722e-05
1.75698e-05
8.8034e-06
4.41076e-06
2.20942e-06
1.10636e-06
5.53763e-07
2.77059e-07
1.38564e-07
6.92774e-08
3.46462e-08
1.73231e-08
8.69054e-09
4.38139e-09
2.22574e-09
1.15543e-09
7.86237e-10
5.22123e-10
3.09813e-10
2.04132e-10
1.50125e-10
1.29284e-10
1.17236e-10
1.1009e-10
1.04914e-10
1.0226e-10
1.00993e-10
1.003e-10
9.97943e-11
9.95596e-11
9.94284e-11
9.93457e-11
9.9303e-11
9.9286e-11
9.92741e-11
9.9268e-11
9.92633e-11
9.92615e-11
9.926e-11
9.92593e-11
9.92591e-11
9.9259e-11
9.92591e-11
9.92592e-11
9.92594e-11
9.92597e-11
9.92599e-11
9.92602e-11
9.92604e-11
9.92607e-11
9.9261e-11
9.92612e-11
9.92614e-11
9.92616e-11
9.92619e-11
9.92621e-11
9.92624e-11
9.92627e-11
9.92629e-11
9.92633e-11
9.92635e-11
9.92638e-11
9.9264e-11
9.92642e-11
9.92644e-11
9.92647e-11
9.92651e-11
9.92653e-11
9.92656e-11
9.92657e-11
9.92661e-11
9.92664e-11
9.92666e-11
9.9267e-11
9.92674e-11
9.92675e-11
9.92678e-11
9.92681e-11
9.92683e-11
9.92685e-11
9.92688e-11
9.9269e-11
9.92693e-11
9.92696e-11
9.92699e-11
9.92702e-11
9.92704e-11
9.92708e-11
9.9271e-11
9.92712e-11
9.92715e-11
9.92718e-11
9.9272e-11
9.92722e-11
9.92725e-11
9.92728e-11
9.92731e-11
9.92733e-11
9.92735e-11
9.92738e-11
9.92739e-11
9.92743e-11
9.92746e-11
9.92749e-11
9.92751e-11
9.92754e-11
9.92756e-11
9.92759e-11
9.92762e-11
9.92764e-11
9.92766e-11
9.9277e-11
9.92773e-11
9.92774e-11
9.92778e-11
9.9278e-11
9.92783e-11
9.92786e-11
9.92787e-11
9.92791e-11
9.92793e-11
9.92796e-11
9.92799e-11
9.92802e-11
9.92804e-11
9.92806e-11
9.92808e-11
9.92812e-11
9.92814e-11
9.92818e-11
9.92821e-11
9.92824e-11
9.92827e-11
9.92829e-11
9.92831e-11
9.92834e-11
9.92837e-11
9.92841e-11
9.92843e-11
9.92845e-11
9.92848e-11
9.92851e-11
9.92853e-11
9.92856e-11
9.92858e-11
9.92862e-11
9.92864e-11
9.92866e-11
9.92869e-11
9.92872e-11
9.92874e-11
9.92877e-11
9.92879e-11
9.92883e-11
9.92885e-11
9.92887e-11
9.9289e-11
9.92893e-11
9.92895e-11
9.92898e-11
9.929e-11
9.92904e-11
9.92906e-11
9.92908e-11
9.92912e-11
9.92915e-11
9.92918e-11
9.9292e-11
9.92923e-11
9.92926e-11
9.92928e-11
9.92931e-11
9.92933e-11
9.92936e-11
9.92939e-11
9.92941e-11
9.92944e-11
9.92948e-11
9.9295e-11
9.92952e-11
9.92954e-11
9.92957e-11
9.92959e-11
9.92961e-11
9.92964e-11
9.92967e-11
9.9297e-11
9.92974e-11
9.92978e-11
9.9298e-11
9.92984e-11
9.92986e-11
9.9299e-11
9.92993e-11
9.92996e-11
9.92999e-11
9.93002e-11
9.93004e-11
9.93006e-11
9.93008e-11
9.93011e-11
9.93015e-11
9.93018e-11
9.9302e-11
9.93023e-11
9.93027e-11
9.93028e-11
9.93032e-11
9.93034e-11
9.93037e-11
9.9304e-11
9.93042e-11
9.93045e-11
9.93048e-11
9.93049e-11
9.93053e-11
9.93055e-11
9.93058e-11
9.93061e-11
9.93064e-11
9.93067e-11
9.93069e-11
9.93072e-11
9.93074e-11
9.93077e-11
9.9308e-11
9.93081e-11
9.93085e-11
9.93088e-11
9.93091e-11
9.93094e-11
9.93097e-11
9.93099e-11
9.93103e-11
9.93106e-11
9.93109e-11
9.93111e-11
9.93115e-11
9.93118e-11
9.93121e-11
9.93123e-11
9.93126e-11
9.93128e-11
9.9313e-11
9.93133e-11
9.93137e-11
9.93139e-11
9.93142e-11
9.93146e-11
9.93148e-11
9.9315e-11
9.93153e-11
9.93157e-11
9.9316e-11
9.93163e-11
9.93165e-11
9.93168e-11
9.9317e-11
9.93173e-11
9.93175e-11
9.93179e-11
9.93182e-11
9.93184e-11
9.93189e-11
9.93191e-11
9.93194e-11
9.93197e-11
9.93199e-11
9.93202e-11
9.93205e-11
9.93208e-11
9.93211e-11
9.93213e-11
9.93216e-11
9.93218e-11
9.93221e-11
9.93225e-11
9.93227e-11
9.93229e-11
9.93233e-11
9.93236e-11
9.93239e-11
9.93242e-11
9.93244e-11
9.93248e-11
9.9325e-11
9.93253e-11
9.93256e-11
9.93259e-11
9.93262e-11
9.93265e-11
9.93267e-11
9.9327e-11
9.93274e-11
9.93276e-11
9.93278e-11
9.93281e-11
9.93284e-11
9.93287e-11
9.93289e-11
9.93292e-11
9.93296e-11
9.93299e-11
9.93302e-11
9.93304e-11
9.93308e-11
9.93311e-11
9.93312e-11
9.93316e-11
9.93319e-11
9.93321e-11
9.93324e-11
9.93327e-11
9.93329e-11
9.93332e-11
9.93336e-11
9.93339e-11
9.93341e-11
9.93344e-11
9.93346e-11
9.9335e-11
9.93353e-11
9.93356e-11
9.93359e-11
9.93361e-11
9.93365e-11
9.93367e-11
9.9337e-11
9.93373e-11
9.93376e-11
9.93379e-11
9.93382e-11
9.93384e-11
9.93387e-11
9.93391e-11
9.93393e-11
9.93396e-11
9.93399e-11
9.93403e-11
9.93405e-11
9.93409e-11
9.93413e-11
9.93415e-11
9.93418e-11
9.9342e-11
9.93422e-11
9.93426e-11
9.93428e-11
9.93431e-11
9.93434e-11
9.93436e-11
9.93439e-11
9.93441e-11
9.93445e-11
9.93448e-11
9.93451e-11
9.93455e-11
9.93458e-11
9.9346e-11
9.93462e-11
9.93464e-11
9.93469e-11
9.93471e-11
9.93474e-11
9.93477e-11
9.9348e-11
9.93483e-11
9.93486e-11
9.93489e-11
9.93491e-11
9.93493e-11
9.93497e-11
9.93499e-11
9.93503e-11
9.93506e-11
9.93508e-11
9.93511e-11
9.93514e-11
9.93517e-11
9.9352e-11
9.93523e-11
9.93525e-11
9.9353e-11
9.93532e-11
9.93535e-11
9.93537e-11
9.9354e-11
9.93544e-11
9.93546e-11
9.9355e-11
9.93552e-11
9.93555e-11
9.93558e-11
9.93561e-11
9.93564e-11
9.93567e-11
9.9357e-11
9.93573e-11
9.93576e-11
9.93579e-11
9.93582e-11
9.93585e-11
9.93587e-11
9.93591e-11
9.93594e-11
9.93597e-11
9.93599e-11
9.93602e-11
9.93606e-11
9.93608e-11
9.93611e-11
9.93613e-11
9.93616e-11
9.9362e-11
9.93622e-11
9.93625e-11
9.93627e-11
9.93631e-11
9.93634e-11
9.93637e-11
9.9364e-11
9.93643e-11
9.93646e-11
9.93649e-11
9.93652e-11
9.93655e-11
9.93658e-11
9.93661e-11
9.93663e-11
9.93666e-11
9.9367e-11
9.93673e-11
9.93675e-11
9.93678e-11
9.93681e-11
9.93684e-11
9.93687e-11
9.9369e-11
9.93693e-11
9.93696e-11
9.93698e-11
9.93701e-11
9.93704e-11
9.93707e-11
9.93709e-11
9.93713e-11
9.93716e-11
9.93718e-11
9.93721e-11
9.93724e-11
9.93727e-11
9.9373e-11
9.93732e-11
9.93734e-11
9.93737e-11
9.93741e-11
9.93744e-11
9.93747e-11
9.93752e-11
9.93754e-11
9.93759e-11
9.93762e-11
9.93765e-11
9.93768e-11
9.93771e-11
9.93774e-11
9.93777e-11
9.9378e-11
9.93783e-11
9.93785e-11
9.93788e-11
9.93792e-11
9.93794e-11
9.93798e-11
9.938e-11
9.93803e-11
9.93806e-11
9.93809e-11
9.93812e-11
9.93815e-11
9.93817e-11
9.93821e-11
9.93824e-11
9.93826e-11
9.93828e-11
9.93831e-11
9.93835e-11
9.93837e-11
9.9384e-11
9.93843e-11
9.93846e-11
9.93849e-11
9.93851e-11
9.93854e-11
9.93857e-11
9.93859e-11
9.93862e-11
9.93866e-11
9.93868e-11
9.93872e-11
9.93875e-11
9.93879e-11
9.93882e-11
9.93885e-11
9.93887e-11
9.9389e-11
9.93893e-11
9.93895e-11
9.93899e-11
9.93901e-11
9.93905e-11
9.93908e-11
9.93912e-11
9.93915e-11
9.93917e-11
9.93921e-11
)
;

boundaryField
{
    fixedWall
    {
        type            zeroGradient;
    }
    outlet
    {
        type            inletOutlet;
        inletValue      uniform 0;
        value           uniform 9.93921e-11;
    }
    defaultFaces
    {
        type            empty;
    }
}


// ************************************************************************* //
