/*--------------------------------*- C++ -*----------------------------------*\
| =========                 |                                                 |
| \\      /  F ield         | OpenFOAM: The Open Source CFD Toolbox           |
|  \\    /   O peration     | Version:  2406                                  |
|   \\  /    A nd           | Website:  www.openfoam.com                      |
|    \\/     M anipulation  |                                                 |
\*---------------------------------------------------------------------------*/
FoamFile
{
    version     2.0;
    format      ascii;
    arch        "LSB;label=32;scalar=64";
    class       volScalarField;
    location    "3";
    object      O2;
}
// * * * * * * * * * * * * * * * * * * * * * * * * * * * * * * * * * * * * * //

dimensions      [0 0 0 0 0 0 0];

internalField   nonuniform List<scalar> 
1000
(
1.65117e-06
1.64753e-06
1.64126e-06
1.63292e-06
1.62285e-06
1.61127e-06
1.59835e-06
1.58421e-06
1.56895e-06
1.55264e-06
1.53536e-06
1.51717e-06
1.49813e-06
1.47829e-06
1.45773e-06
1.43648e-06
1.41464e-06
1.39225e-06
1.36939e-06
1.34615e-06
1.3226e-06
1.29882e-06
1.2749e-06
1.25093e-06
1.22699e-06
1.20318e-06
1.17958e-06
1.15626e-06
1.1333e-06
1.11079e-06
1.08878e-06
1.06733e-06
1.0465e-06
1.02633e-06
1.00687e-06
9.88143e-07
9.70178e-07
9.52995e-07
9.36607e-07
9.21021e-07
9.0624e-07
8.92261e-07
8.79077e-07
8.66677e-07
8.55048e-07
8.44173e-07
8.34031e-07
8.24601e-07
8.15861e-07
8.07785e-07
8.00348e-07
7.93524e-07
7.87287e-07
7.81609e-07
7.76464e-07
7.71825e-07
7.67666e-07
7.63962e-07
7.60687e-07
7.57816e-07
7.55326e-07
7.53195e-07
7.51399e-07
7.49918e-07
7.48731e-07
7.4782e-07
7.47165e-07
7.46751e-07
7.4656e-07
7.46574e-07
7.46779e-07
7.47162e-07
7.4771e-07
7.48411e-07
7.49253e-07
7.50224e-07
7.51316e-07
7.52519e-07
7.53823e-07
7.55221e-07
7.56705e-07
7.58269e-07
7.59905e-07
7.61608e-07
7.63372e-07
7.65192e-07
7.67064e-07
7.68984e-07
7.70947e-07
7.7295e-07
7.7499e-07
7.77063e-07
7.79168e-07
7.81302e-07
7.83462e-07
7.85647e-07
7.87855e-07
7.90084e-07
7.92333e-07
7.94601e-07
7.96886e-07
7.99188e-07
8.01506e-07
8.03839e-07
8.06187e-07
8.08537e-07
8.1089e-07
8.13284e-07
8.15689e-07
8.18106e-07
8.20534e-07
8.22973e-07
8.25423e-07
8.27885e-07
8.30358e-07
8.32842e-07
8.35338e-07
8.37846e-07
8.40365e-07
8.42895e-07
8.45438e-07
8.47993e-07
8.5056e-07
8.53139e-07
8.55731e-07
8.58335e-07
8.60953e-07
8.63583e-07
8.66227e-07
8.68885e-07
8.71556e-07
8.74241e-07
8.7694e-07
8.79654e-07
8.82383e-07
8.85126e-07
8.87885e-07
8.90659e-07
8.93448e-07
8.96254e-07
8.99076e-07
9.01914e-07
9.04768e-07
9.0764e-07
9.10528e-07
9.13434e-07
9.16357e-07
9.19297e-07
9.22256e-07
9.25233e-07
9.28228e-07
9.31241e-07
9.34273e-07
9.37323e-07
9.40393e-07
9.43483e-07
9.46592e-07
9.49721e-07
9.52871e-07
9.56041e-07
9.59232e-07
9.62444e-07
9.65677e-07
9.68932e-07
9.72209e-07
9.75508e-07
9.78829e-07
9.82173e-07
9.85539e-07
9.88928e-07
9.92341e-07
9.95776e-07
9.99236e-07
1.00272e-06
1.00623e-06
1.00976e-06
1.01332e-06
1.0169e-06
1.02051e-06
1.02414e-06
1.0278e-06
1.03148e-06
1.03519e-06
1.03893e-06
1.04269e-06
1.04649e-06
1.05031e-06
1.05415e-06
1.05803e-06
1.06193e-06
1.06587e-06
1.06983e-06
1.07382e-06
1.07784e-06
1.08189e-06
1.08598e-06
1.09009e-06
1.09423e-06
1.09841e-06
1.10262e-06
1.10686e-06
1.11113e-06
1.11544e-06
1.11977e-06
1.12415e-06
1.12855e-06
1.13299e-06
1.13747e-06
1.14198e-06
1.14652e-06
1.1511e-06
1.15572e-06
1.16037e-06
1.16506e-06
1.16979e-06
1.17456e-06
1.17936e-06
1.1842e-06
1.18908e-06
1.194e-06
1.19896e-06
1.20396e-06
1.209e-06
1.21408e-06
1.21921e-06
1.22437e-06
1.22958e-06
1.23483e-06
1.24012e-06
1.24546e-06
1.25084e-06
1.25627e-06
1.26174e-06
1.26726e-06
1.27283e-06
1.27844e-06
1.2841e-06
1.28981e-06
1.29558e-06
1.30139e-06
1.30725e-06
1.31316e-06
1.31913e-06
1.32514e-06
1.33122e-06
1.33735e-06
1.34353e-06
1.34977e-06
1.35607e-06
1.36242e-06
1.36884e-06
1.37531e-06
1.38185e-06
1.38844e-06
1.3951e-06
1.40183e-06
1.40861e-06
1.41547e-06
1.42239e-06
1.42937e-06
1.43643e-06
1.44355e-06
1.45075e-06
1.45801e-06
1.46535e-06
1.47276e-06
1.48024e-06
1.4878e-06
1.49543e-06
1.50314e-06
1.51093e-06
1.5188e-06
1.52675e-06
1.53478e-06
1.54289e-06
1.55108e-06
1.55936e-06
1.56773e-06
1.57618e-06
1.58472e-06
1.59335e-06
1.60208e-06
1.61089e-06
1.6198e-06
1.6288e-06
1.63791e-06
1.64711e-06
1.65641e-06
1.66581e-06
1.67532e-06
1.68494e-06
1.69459e-06
1.70434e-06
1.71431e-06
1.72439e-06
1.73458e-06
1.74488e-06
1.75531e-06
1.76585e-06
1.77653e-06
1.78733e-06
1.79826e-06
1.80933e-06
1.82053e-06
1.83187e-06
1.84335e-06
1.85498e-06
1.86675e-06
1.87868e-06
1.89076e-06
1.903e-06
1.91539e-06
1.92796e-06
1.94069e-06
1.95359e-06
1.96666e-06
1.97991e-06
1.99335e-06
2.00697e-06
2.02078e-06
2.03479e-06
2.04899e-06
2.0634e-06
2.07801e-06
2.09284e-06
2.10788e-06
2.12314e-06
2.13863e-06
2.15434e-06
2.17029e-06
2.18649e-06
2.20292e-06
2.21961e-06
2.23655e-06
2.25376e-06
2.27123e-06
2.28898e-06
2.30701e-06
2.32532e-06
2.34392e-06
2.36282e-06
2.38202e-06
2.40154e-06
2.42138e-06
2.44154e-06
2.46204e-06
2.48289e-06
2.50408e-06
2.52564e-06
2.54756e-06
2.56986e-06
2.59255e-06
2.61562e-06
2.6391e-06
2.66299e-06
2.68731e-06
2.71205e-06
2.73724e-06
2.76288e-06
2.78899e-06
2.81558e-06
2.84266e-06
2.87025e-06
2.89836e-06
2.927e-06
2.9562e-06
2.98597e-06
3.01632e-06
3.04728e-06
3.07887e-06
3.1111e-06
3.144e-06
3.1776e-06
3.21191e-06
3.24695e-06
3.28277e-06
3.31938e-06
3.3568e-06
3.39508e-06
3.43423e-06
3.47429e-06
3.51529e-06
3.55726e-06
3.60024e-06
3.64426e-06
3.68937e-06
3.73559e-06
3.78298e-06
3.83157e-06
3.8814e-06
3.93254e-06
3.98501e-06
4.03889e-06
4.09423e-06
4.15107e-06
4.2095e-06
4.26958e-06
4.33138e-06
4.39497e-06
4.46045e-06
4.5279e-06
4.59742e-06
4.6691e-06
4.74304e-06
4.81937e-06
4.8982e-06
4.97944e-06
5.06266e-06
5.14975e-06
5.23984e-06
5.33309e-06
5.42968e-06
5.52977e-06
5.63353e-06
5.74115e-06
5.85283e-06
5.96876e-06
6.0892e-06
6.21437e-06
6.34459e-06
6.48019e-06
6.6206e-06
6.76615e-06
6.91984e-06
7.08037e-06
7.24835e-06
7.42438e-06
7.60914e-06
7.80337e-06
8.00791e-06
8.2238e-06
8.44955e-06
8.6877e-06
8.94271e-06
9.21316e-06
9.50072e-06
9.80711e-06
1.01342e-05
1.04839e-05
1.08586e-05
1.12607e-05
1.16931e-05
1.21589e-05
1.26619e-05
1.32062e-05
1.37968e-05
1.44393e-05
1.51408e-05
1.59092e-05
1.67546e-05
1.76886e-05
1.87257e-05
1.98833e-05
2.11833e-05
2.26526e-05
2.43259e-05
2.62464e-05
2.84459e-05
3.10307e-05
3.40902e-05
3.77559e-05
4.22157e-05
4.77347e-05
5.47136e-05
6.36704e-05
7.57184e-05
9.25605e-05
0.000117736
0.000158789
0.00023406
0.00039673
0.000827622
0.00221178
0.00736588
0.0310836
0.0681829
0.0862333
0.0948915
0.099082
0.101131
0.102141
0.102641
0.10289
0.103015
0.103077
0.103108
0.103123
0.103131
0.103135
0.103137
0.103138
0.103139
0.103139
0.103139
0.103139
0.103139
0.103139
0.103139
0.103139
0.103139
0.103139
0.103139
0.103139
0.103139
0.103139
0.103139
0.103139
0.103139
0.103139
0.103139
0.103139
0.103139
0.103139
0.103139
0.103139
0.103139
0.103139
0.103139
0.103139
0.103139
0.103139
0.103139
0.103139
0.103139
0.103139
0.103139
0.103139
0.103139
0.103139
0.103139
0.103139
0.103139
0.103139
0.103139
0.103139
0.103139
0.103139
0.103139
0.103139
0.103139
0.103139
0.103139
0.103139
0.103139
0.103139
0.103139
0.103139
0.103139
0.103139
0.103139
0.103139
0.103139
0.103139
0.103139
0.103139
0.103139
0.103139
0.103139
0.103139
0.103139
0.103139
0.103139
0.103139
0.103139
0.103139
0.103139
0.103139
0.103139
0.103139
0.103139
0.103139
0.103139
0.103139
0.103139
0.103139
0.103139
0.103139
0.103139
0.103139
0.103139
0.103139
0.103139
0.103139
0.103139
0.103139
0.103139
0.103139
0.103139
0.103139
0.103139
0.103139
0.103139
0.103139
0.103139
0.103139
0.103139
0.103139
0.103139
0.103139
0.103139
0.103139
0.103139
0.103139
0.103139
0.103139
0.103139
0.103139
0.103139
0.103139
0.103139
0.103139
0.103139
0.103139
0.103139
0.103139
0.103139
0.103139
0.103139
0.103139
0.103139
0.103139
0.103139
0.103139
0.103139
0.103139
0.103139
0.103139
0.103139
0.103139
0.103139
0.103139
0.103139
0.103139
0.103139
0.103139
0.103139
0.103139
0.103139
0.103139
0.103139
0.103139
0.103139
0.103139
0.103139
0.103139
0.103139
0.103139
0.103139
0.103139
0.103139
0.103139
0.103139
0.103139
0.103139
0.103139
0.103139
0.103139
0.103139
0.103139
0.103139
0.103139
0.103139
0.103139
0.103139
0.103139
0.103139
0.103139
0.103139
0.103139
0.103139
0.103139
0.103139
0.103139
0.103139
0.103139
0.103139
0.103139
0.103139
0.103139
0.103139
0.103139
0.103139
0.103139
0.103139
0.103139
0.103139
0.103139
0.103139
0.103139
0.103139
0.103139
0.103139
0.103139
0.103139
0.103139
0.103139
0.103139
0.103139
0.103139
0.103139
0.103139
0.103139
0.103139
0.103139
0.103139
0.103139
0.103139
0.103139
0.103139
0.103139
0.103139
0.103139
0.103139
0.103139
0.103139
0.103139
0.103139
0.103139
0.103139
0.103139
0.103139
0.103139
0.103139
0.103139
0.103139
0.103139
0.103139
0.103139
0.103139
0.103139
0.103139
0.103139
0.103139
0.103139
0.103139
0.103139
0.103139
0.103139
0.103139
0.103139
0.103139
0.103139
0.103139
0.103139
0.103139
0.103139
0.103139
0.103139
0.103139
0.103139
0.103139
0.103139
0.103139
0.103139
0.103139
0.103139
0.103139
0.103139
0.103139
0.103139
0.103139
0.103139
0.103139
0.103139
0.103139
0.103139
0.103139
0.103139
0.103139
0.103139
0.103139
0.103139
0.103139
0.103139
0.103139
0.103139
0.103139
0.103139
0.103139
0.103139
0.103139
0.103139
0.103139
0.103139
0.103139
0.103139
0.103139
0.103139
0.103139
0.103139
0.103139
0.103139
0.103139
0.103139
0.103139
0.103139
0.103139
0.103139
0.103139
0.103139
0.103139
0.103139
0.103139
0.103139
0.103139
0.103139
0.103139
0.103139
0.103139
0.103139
0.103139
0.103139
0.103139
0.103139
0.103139
0.103139
0.103139
0.103139
0.103139
0.103139
0.103139
0.103139
0.103139
0.103139
0.103139
0.103139
0.103139
0.103139
0.103139
0.103139
0.103139
0.103139
0.103139
0.103139
0.103139
0.103139
0.103139
0.103139
0.103139
0.103139
0.103139
0.103139
0.103139
0.103139
0.103139
0.103139
0.103139
0.103139
0.103139
0.103139
0.103139
0.103139
0.103139
0.103139
0.103139
0.103139
0.103139
0.103139
0.103139
0.103139
0.103139
0.103139
0.103139
0.103139
0.103139
0.103139
0.103139
0.103139
0.103139
0.103139
0.103139
0.103139
0.103139
0.103139
0.103139
0.103139
0.103139
0.103139
0.103139
0.103139
0.103139
0.103139
0.103139
0.103139
0.103139
0.103139
0.103139
0.103139
0.103139
0.103139
0.103139
0.103139
0.103139
0.103139
0.103139
0.103139
0.103139
0.103139
0.103139
0.103139
0.103139
0.103139
0.103139
0.103139
0.103139
0.103139
0.103139
0.103139
0.103139
0.103139
0.103139
0.103139
0.103139
0.103139
0.103139
0.103139
0.103139
0.103139
0.103139
0.103139
0.103139
0.103139
0.103139
0.103139
0.103139
0.103139
0.103139
0.103139
0.103139
0.103139
0.103139
0.103139
0.103139
0.103139
0.103139
0.103139
0.103139
0.103139
0.103139
0.103139
0.103139
0.103139
0.103139
0.103139
0.103139
0.103139
0.103139
0.103139
0.103139
0.103139
0.103139
0.103139
0.103139
0.103139
0.103139
0.103139
0.103139
0.103139
0.103139
0.103139
0.103139
0.103139
0.103139
0.103139
0.103139
0.103139
0.103139
0.103139
0.103139
0.103139
0.103139
0.103139
0.103139
0.103139
0.103139
0.103139
0.103139
0.103139
0.103139
0.103139
0.103139
0.103139
0.103139
0.103139
0.103139
0.103139
0.103139
0.103139
0.103139
0.103139
0.103139
0.103139
0.103139
0.103139
0.103139
0.103139
0.103139
0.103139
0.103139
0.103139
)
;

boundaryField
{
    fixedWall
    {
        type            zeroGradient;
    }
    outlet
    {
        type            inletOutlet;
        inletValue      uniform 0;
        value           uniform 0.103139;
    }
    defaultFaces
    {
        type            empty;
    }
}


// ************************************************************************* //
