/*--------------------------------*- C++ -*----------------------------------*\
| =========                 |                                                 |
| \\      /  F ield         | OpenFOAM: The Open Source CFD Toolbox           |
|  \\    /   O peration     | Version:  2406                                  |
|   \\  /    A nd           | Website:  www.openfoam.com                      |
|    \\/     M anipulation  |                                                 |
\*---------------------------------------------------------------------------*/
FoamFile
{
    version     2.0;
    format      ascii;
    arch        "LSB;label=32;scalar=64";
    class       surfaceScalarField;
    location    "3";
    object      phi;
}
// * * * * * * * * * * * * * * * * * * * * * * * * * * * * * * * * * * * * * //

dimensions      [1 0 -1 0 0 0 0];

oriented        oriented;

internalField   nonuniform List<scalar> 
999
(
-1.11148e-07
-3.3419e-07
-6.03864e-07
-8.92496e-07
-1.18699e-06
-1.48069e-06
-1.77011e-06
-2.05336e-06
-2.32949e-06
-2.59802e-06
-2.85877e-06
-3.11172e-06
-3.35696e-06
-3.59462e-06
-3.82489e-06
-4.04793e-06
-4.26395e-06
-4.47313e-06
-4.67564e-06
-4.87167e-06
-5.06138e-06
-5.24495e-06
-5.42251e-06
-5.59423e-06
-5.76025e-06
-5.92069e-06
-6.07569e-06
-6.22538e-06
-6.36988e-06
-6.5093e-06
-6.64376e-06
-6.77337e-06
-6.89824e-06
-7.01847e-06
-7.13418e-06
-7.24545e-06
-7.3524e-06
-7.45512e-06
-7.55371e-06
-7.64827e-06
-7.7389e-06
-7.82569e-06
-7.90875e-06
-7.98816e-06
-8.06403e-06
-8.13644e-06
-8.2055e-06
-8.27129e-06
-8.33392e-06
-8.39347e-06
-8.45005e-06
-8.50374e-06
-8.55463e-06
-8.60283e-06
-8.64841e-06
-8.69147e-06
-8.73211e-06
-8.7704e-06
-8.80645e-06
-8.84032e-06
-8.87212e-06
-8.90193e-06
-8.92983e-06
-8.9559e-06
-8.98022e-06
-9.00286e-06
-9.02382e-06
-9.0433e-06
-9.06147e-06
-9.0782e-06
-9.09362e-06
-9.10782e-06
-9.12085e-06
-9.13279e-06
-9.1437e-06
-9.15362e-06
-9.16262e-06
-9.17074e-06
-9.17805e-06
-9.18459e-06
-9.1904e-06
-9.19554e-06
-9.20005e-06
-9.20398e-06
-9.20735e-06
-9.21022e-06
-9.21261e-06
-9.21456e-06
-9.2161e-06
-9.21727e-06
-9.21808e-06
-9.21858e-06
-9.21878e-06
-9.2187e-06
-9.21837e-06
-9.21782e-06
-9.21705e-06
-9.21608e-06
-9.21495e-06
-9.21365e-06
-9.2122e-06
-9.21062e-06
-9.20892e-06
-9.20712e-06
-9.20521e-06
-9.20321e-06
-9.20113e-06
-9.19898e-06
-9.19677e-06
-9.1945e-06
-9.19217e-06
-9.1898e-06
-9.18739e-06
-9.18494e-06
-9.18245e-06
-9.17994e-06
-9.17741e-06
-9.17485e-06
-9.17227e-06
-9.16968e-06
-9.16707e-06
-9.16445e-06
-9.16182e-06
-9.15918e-06
-9.15654e-06
-9.15389e-06
-9.15123e-06
-9.14857e-06
-9.1459e-06
-9.14324e-06
-9.14057e-06
-9.1379e-06
-9.13523e-06
-9.13257e-06
-9.1299e-06
-9.12723e-06
-9.12456e-06
-9.1219e-06
-9.11924e-06
-9.11657e-06
-9.11391e-06
-9.11126e-06
-9.1086e-06
-9.10594e-06
-9.10329e-06
-9.10064e-06
-9.09799e-06
-9.09534e-06
-9.0927e-06
-9.09005e-06
-9.08741e-06
-9.08477e-06
-9.08213e-06
-9.07949e-06
-9.07685e-06
-9.07421e-06
-9.07158e-06
-9.06894e-06
-9.06631e-06
-9.06367e-06
-9.06104e-06
-9.05841e-06
-9.05577e-06
-9.05314e-06
-9.05051e-06
-9.04788e-06
-9.04524e-06
-9.04261e-06
-9.03998e-06
-9.03735e-06
-9.03471e-06
-9.03208e-06
-9.02944e-06
-9.02681e-06
-9.02417e-06
-9.02154e-06
-9.0189e-06
-9.01626e-06
-9.01362e-06
-9.01098e-06
-9.00834e-06
-9.0057e-06
-9.00306e-06
-9.00042e-06
-8.99777e-06
-8.99513e-06
-8.99248e-06
-8.98984e-06
-8.98719e-06
-8.98454e-06
-8.98189e-06
-8.97923e-06
-8.97658e-06
-8.97392e-06
-8.97127e-06
-8.96861e-06
-8.96594e-06
-8.96328e-06
-8.96062e-06
-8.95795e-06
-8.95528e-06
-8.95261e-06
-8.94994e-06
-8.94726e-06
-8.94459e-06
-8.94191e-06
-8.93922e-06
-8.93654e-06
-8.93385e-06
-8.93116e-06
-8.92847e-06
-8.92577e-06
-8.92308e-06
-8.92038e-06
-8.91767e-06
-8.91497e-06
-8.91226e-06
-8.90954e-06
-8.90683e-06
-8.90411e-06
-8.90139e-06
-8.89867e-06
-8.89594e-06
-8.89321e-06
-8.89048e-06
-8.88775e-06
-8.88501e-06
-8.88227e-06
-8.87953e-06
-8.87678e-06
-8.87404e-06
-8.87129e-06
-8.86853e-06
-8.86578e-06
-8.86303e-06
-8.86027e-06
-8.85751e-06
-8.85474e-06
-8.85198e-06
-8.84921e-06
-8.84645e-06
-8.84368e-06
-8.84091e-06
-8.83813e-06
-8.83536e-06
-8.83258e-06
-8.82981e-06
-8.82703e-06
-8.82424e-06
-8.82146e-06
-8.81867e-06
-8.81589e-06
-8.81309e-06
-8.8103e-06
-8.8075e-06
-8.8047e-06
-8.8019e-06
-8.7991e-06
-8.79629e-06
-8.79348e-06
-8.79066e-06
-8.78784e-06
-8.78501e-06
-8.78219e-06
-8.77935e-06
-8.77652e-06
-8.77368e-06
-8.77083e-06
-8.76798e-06
-8.76513e-06
-8.76227e-06
-8.7594e-06
-8.75654e-06
-8.75367e-06
-8.75079e-06
-8.74791e-06
-8.74502e-06
-8.74214e-06
-8.73925e-06
-8.73635e-06
-8.73345e-06
-8.73055e-06
-8.72765e-06
-8.72474e-06
-8.72183e-06
-8.71892e-06
-8.71601e-06
-8.71309e-06
-8.71018e-06
-8.70726e-06
-8.70434e-06
-8.70142e-06
-8.6985e-06
-8.69557e-06
-8.69265e-06
-8.68972e-06
-8.6868e-06
-8.68387e-06
-8.68094e-06
-8.67801e-06
-8.67508e-06
-8.67214e-06
-8.66921e-06
-8.66628e-06
-8.66334e-06
-8.6604e-06
-8.65746e-06
-8.65452e-06
-8.65157e-06
-8.64862e-06
-8.64568e-06
-8.64272e-06
-8.63977e-06
-8.63681e-06
-8.63385e-06
-8.63088e-06
-8.62792e-06
-8.62495e-06
-8.62197e-06
-8.619e-06
-8.61602e-06
-8.61304e-06
-8.61005e-06
-8.60707e-06
-8.60408e-06
-8.60108e-06
-8.59809e-06
-8.59509e-06
-8.5921e-06
-8.5891e-06
-8.58609e-06
-8.58309e-06
-8.58008e-06
-8.57708e-06
-8.57407e-06
-8.57106e-06
-8.56805e-06
-8.56503e-06
-8.56201e-06
-8.55899e-06
-8.55596e-06
-8.55293e-06
-8.5499e-06
-8.54685e-06
-8.54381e-06
-8.54075e-06
-8.53769e-06
-8.53462e-06
-8.53154e-06
-8.52846e-06
-8.52536e-06
-8.52226e-06
-8.51914e-06
-8.51602e-06
-8.51288e-06
-8.50974e-06
-8.50659e-06
-8.50343e-06
-8.50026e-06
-8.49709e-06
-8.49391e-06
-8.49072e-06
-8.48753e-06
-8.48434e-06
-8.48115e-06
-8.47795e-06
-8.47476e-06
-8.47157e-06
-8.46839e-06
-8.4652e-06
-8.46203e-06
-8.45885e-06
-8.45569e-06
-8.45253e-06
-8.44937e-06
-8.44622e-06
-8.44307e-06
-8.43992e-06
-8.43677e-06
-8.43361e-06
-8.43046e-06
-8.42729e-06
-8.42412e-06
-8.42093e-06
-8.41774e-06
-8.41452e-06
-8.4113e-06
-8.40805e-06
-8.40479e-06
-8.4015e-06
-8.39821e-06
-8.39489e-06
-8.39157e-06
-8.38823e-06
-8.38489e-06
-8.38154e-06
-8.37819e-06
-8.37484e-06
-8.37151e-06
-8.36818e-06
-8.36487e-06
-8.36157e-06
-8.35829e-06
-8.35503e-06
-8.35178e-06
-8.34855e-06
-8.34533e-06
-8.34211e-06
-8.33889e-06
-8.33566e-06
-8.33241e-06
-8.32914e-06
-8.32582e-06
-8.32246e-06
-8.31905e-06
-8.31558e-06
-8.31204e-06
-8.30844e-06
-8.30477e-06
-8.30104e-06
-8.29725e-06
-8.29342e-06
-8.28956e-06
-8.28569e-06
-8.28181e-06
-8.27795e-06
-8.27413e-06
-8.27036e-06
-8.26665e-06
-8.26303e-06
-8.25949e-06
-8.25606e-06
-8.25274e-06
-8.24952e-06
-8.2464e-06
-8.24338e-06
-8.24043e-06
-8.23753e-06
-8.23466e-06
-8.23178e-06
-8.22884e-06
-8.2258e-06
-8.22261e-06
-8.21923e-06
-8.21559e-06
-8.21166e-06
-8.20737e-06
-8.20267e-06
-8.19748e-06
-8.19173e-06
-8.18533e-06
-8.17818e-06
-8.17019e-06
-8.16127e-06
-8.15133e-06
-8.14032e-06
-8.12815e-06
-8.11475e-06
-8.10001e-06
-8.08372e-06
-8.06558e-06
-8.04506e-06
-8.02117e-06
-7.99219e-06
-7.95549e-06
-7.90739e-06
-7.84445e-06
-7.76373e-06
-7.65861e-06
-7.50697e-06
-7.27636e-06
-6.98514e-06
-6.5728e-06
-2.23898e-06
0.000172011
0.000370853
0.000559105
0.000707358
0.000807845
0.000869385
0.000904845
0.000924591
0.000935391
0.000941244
0.000944403
0.000946107
0.000947026
0.000947525
0.000947798
0.000947949
0.000948035
0.000948086
0.000948119
0.000948141
0.000948158
0.000948172
0.000948184
0.000948196
0.000948207
0.000948218
0.000948229
0.000948239
0.00094825
0.000948261
0.000948271
0.000948281
0.000948292
0.000948302
0.000948313
0.000948323
0.000948333
0.000948343
0.000948353
0.000948364
0.000948374
0.000948384
0.000948394
0.000948404
0.000948414
0.000948424
0.000948434
0.000948444
0.000948454
0.000948463
0.000948473
0.000948483
0.000948493
0.000948502
0.000948512
0.000948522
0.000948531
0.000948541
0.00094855
0.00094856
0.000948569
0.000948579
0.000948588
0.000948598
0.000948607
0.000948616
0.000948626
0.000948635
0.000948644
0.000948653
0.000948663
0.000948672
0.000948681
0.00094869
0.000948699
0.000948708
0.000948717
0.000948726
0.000948735
0.000948744
0.000948753
0.000948762
0.00094877
0.000948779
0.000948788
0.000948797
0.000948805
0.000948814
0.000948823
0.000948831
0.00094884
0.000948848
0.000948857
0.000948865
0.000948874
0.000948882
0.000948891
0.000948899
0.000948907
0.000948916
0.000948924
0.000948932
0.000948941
0.000948949
0.000948957
0.000948965
0.000948973
0.000948981
0.000948989
0.000948998
0.000949006
0.000949014
0.000949022
0.000949029
0.000949037
0.000949045
0.000949053
0.000949061
0.000949069
0.000949076
0.000949084
0.000949092
0.0009491
0.000949107
0.000949115
0.000949123
0.00094913
0.000949138
0.000949145
0.000949153
0.00094916
0.000949168
0.000949175
0.000949182
0.00094919
0.000949197
0.000949204
0.000949212
0.000949219
0.000949226
0.000949233
0.000949241
0.000949248
0.000949255
0.000949262
0.000949269
0.000949276
0.000949283
0.00094929
0.000949297
0.000949304
0.000949311
0.000949318
0.000949325
0.000949332
0.000949339
0.000949345
0.000949352
0.000949359
0.000949366
0.000949372
0.000949379
0.000949386
0.000949392
0.000949399
0.000949406
0.000949412
0.000949419
0.000949425
0.000949432
0.000949438
0.000949445
0.000949451
0.000949457
0.000949464
0.00094947
0.000949476
0.000949483
0.000949489
0.000949495
0.000949501
0.000949508
0.000949514
0.00094952
0.000949526
0.000949532
0.000949538
0.000949544
0.00094955
0.000949556
0.000949562
0.000949568
0.000949574
0.00094958
0.000949586
0.000949592
0.000949598
0.000949603
0.000949609
0.000949615
0.000949621
0.000949627
0.000949632
0.000949638
0.000949644
0.000949649
0.000949655
0.00094966
0.000949666
0.000949672
0.000949677
0.000949683
0.000949688
0.000949693
0.000949699
0.000949704
0.00094971
0.000949715
0.000949721
0.000949726
0.000949731
0.000949736
0.000949742
0.000949747
0.000949752
0.000949757
0.000949763
0.000949768
0.000949773
0.000949778
0.000949783
0.000949788
0.000949793
0.000949798
0.000949803
0.000949808
0.000949813
0.000949818
0.000949823
0.000949828
0.000949833
0.000949838
0.000949842
0.000949847
0.000949852
0.000949857
0.000949862
0.000949866
0.000949871
0.000949876
0.00094988
0.000949885
0.00094989
0.000949894
0.000949899
0.000949903
0.000949908
0.000949912
0.000949917
0.000949921
0.000949926
0.00094993
0.000949935
0.000949939
0.000949944
0.000949948
0.000949952
0.000949957
0.000949961
0.000949965
0.000949969
0.000949974
0.000949978
0.000949982
0.000949986
0.00094999
0.000949995
0.000949999
0.000950003
0.000950007
0.000950011
0.000950015
0.000950019
0.000950023
0.000950027
0.000950031
0.000950035
0.000950039
0.000950043
0.000950047
0.00095005
0.000950054
0.000950058
0.000950062
0.000950066
0.000950069
0.000950073
0.000950077
0.000950081
0.000950084
0.000950088
0.000950092
0.000950095
0.000950099
0.000950103
0.000950106
0.00095011
0.000950113
0.000950117
0.00095012
0.000950124
0.000950127
0.000950131
0.000950134
0.000950137
0.000950141
0.000950144
0.000950148
0.000950151
0.000950154
0.000950158
0.000950161
0.000950164
0.000950167
0.000950171
0.000950174
0.000950177
0.00095018
0.000950183
0.000950186
0.000950189
0.000950193
0.000950196
0.000950199
0.000950202
0.000950205
0.000950208
0.000950211
0.000950214
0.000950217
0.00095022
0.000950222
0.000950225
0.000950228
0.000950231
0.000950234
0.000950237
0.00095024
0.000950242
0.000950245
0.000950248
0.000950251
0.000950253
0.000950256
0.000950259
0.000950261
0.000950264
0.000950267
0.000950269
0.000950272
0.000950275
0.000950277
0.00095028
0.000950282
0.000950285
0.000950287
0.00095029
0.000950292
0.000950294
0.000950297
0.000950299
0.000950302
0.000950304
0.000950306
0.000950309
0.000950311
0.000950313
0.000950316
0.000950318
0.00095032
0.000950322
0.000950325
0.000950327
0.000950329
0.000950331
0.000950333
0.000950335
0.000950338
0.00095034
0.000950342
0.000950344
0.000950346
0.000950348
0.00095035
0.000950352
0.000950354
0.000950356
0.000950358
0.00095036
0.000950362
0.000950363
0.000950365
0.000950367
0.000950369
0.000950371
0.000950373
0.000950374
0.000950376
0.000950378
0.00095038
0.000950381
0.000950383
0.000950385
0.000950386
0.000950388
0.00095039
0.000950391
0.000950393
0.000950395
0.000950396
0.000950398
0.000950399
0.000950401
0.000950402
0.000950404
0.000950405
0.000950407
0.000950408
0.00095041
0.000950411
0.000950412
0.000950414
0.000950415
0.000950417
0.000950418
0.000950419
0.00095042
0.000950422
0.000950423
0.000950424
0.000950426
0.000950427
0.000950428
0.000950429
0.00095043
0.000950431
0.000950433
0.000950434
0.000950435
0.000950436
0.000950437
0.000950438
0.000950439
0.00095044
0.000950441
0.000950442
0.000950443
0.000950444
0.000950445
0.000950446
0.000950447
0.000950448
0.000950449
0.00095045
0.00095045
0.000950451
0.000950452
0.000950453
0.000950453
0.000950454
0.000950455
0.000950456
0.000950456
0.000950457
0.000950458
0.000950458
0.000950459
0.00095046
0.00095046
0.000950461
0.000950462
0.000950462
0.000950463
0.000950463
0.000950464
0.000950464
0.000950465
0.000950465
0.000950466
0.000950466
0.000950467
0.000950467
0.000950467
0.000950468
0.000950468
0.000950469
0.000950469
0.000950469
0.00095047
0.00095047
0.00095047
0.00095047
0.000950471
0.000950471
0.000950471
0.000950471
0.000950472
0.000950472
0.000950472
0.000950472
0.000950472
0.000950472
0.000950472
0.000950472
0.000950472
0.000950472
0.000950472
0.000950472
0.000950472
0.000950472
0.000950472
0.000950472
0.000950472
0.000950472
0.000950472
)
;

boundaryField
{
    fixedWall
    {
        type            calculated;
        value           uniform 0;
    }
    outlet
    {
        type            calculated;
        value           uniform 0.000950472;
    }
    defaultFaces
    {
        type            empty;
    }
}


// ************************************************************************* //
