/*--------------------------------*- C++ -*----------------------------------*\
| =========                 |                                                 |
| \\      /  F ield         | OpenFOAM: The Open Source CFD Toolbox           |
|  \\    /   O peration     | Version:  2406                                  |
|   \\  /    A nd           | Website:  www.openfoam.com                      |
|    \\/     M anipulation  |                                                 |
\*---------------------------------------------------------------------------*/
FoamFile
{
    version     2.0;
    format      ascii;
    arch        "LSB;label=32;scalar=64";
    class       volScalarField;
    location    "3";
    object      Qdot;
}
// * * * * * * * * * * * * * * * * * * * * * * * * * * * * * * * * * * * * * //

dimensions      [1 -1 -3 0 0 0 0];

internalField   nonuniform List<scalar> 
1000
(
-1.424e-17
7.91199e-13
6.05755e-08
5.78132e-07
4.44753e-06
2.29186e-05
8.73847e-05
0.000266725
0.000685779
0.00154025
0.00310254
0.00571631
0.00977905
0.0157158
0.023947
0.0348551
0.048754
0.0658638
0.0862944
0.110037
0.136965
0.166842
0.199339
0.234052
0.270523
0.308266
0.346788
0.385607
0.424271
0.462368
0.499539
0.535482
0.569954
0.602771
0.633805
0.662981
0.690267
0.715675
0.739245
0.761049
0.781174
0.799726
0.816818
0.83257
0.847103
0.860537
0.872988
0.884567
0.895378
0.905519
0.915078
0.924137
0.932769
0.941039
0.949004
0.956716
0.964218
0.97155
0.978743
0.985827
0.992823
0.999754
1.00663
1.01348
1.0203
1.0271
1.03389
1.04066
1.04739
1.05419
1.06099
1.0678
1.07462
1.08146
1.0883
1.09516
1.10202
1.1089
1.1158
1.12271
1.12963
1.13657
1.14353
1.1505
1.15749
1.1645
1.17152
1.17857
1.18564
1.19274
1.19986
1.207
1.21418
1.22138
1.22861
1.23588
1.24318
1.25051
1.25788
1.26529
1.27274
1.28024
1.28777
1.29535
1.30298
1.31061
1.31827
1.32606
1.3339
1.34179
1.34974
1.35773
1.36578
1.37389
1.38206
1.39028
1.39857
1.40692
1.41534
1.42382
1.43236
1.44098
1.44966
1.45841
1.46724
1.47614
1.48511
1.49416
1.50328
1.51248
1.52176
1.53112
1.54057
1.55009
1.5597
1.56939
1.57917
1.58904
1.599
1.60904
1.61918
1.62941
1.63974
1.65016
1.66068
1.6713
1.68201
1.69283
1.70374
1.71476
1.72589
1.73712
1.74845
1.7599
1.77145
1.78312
1.7949
1.80679
1.8188
1.83093
1.84318
1.85555
1.86805
1.88067
1.89342
1.9063
1.91931
1.93245
1.94572
1.95913
1.97268
1.98636
2.00019
2.01416
2.02828
2.04254
2.05695
2.07152
2.08623
2.10111
2.11614
2.13133
2.14669
2.16221
2.17789
2.19375
2.20978
2.22598
2.24237
2.25893
2.27567
2.29261
2.30972
2.32704
2.34454
2.36224
2.38014
2.39825
2.41656
2.43508
2.45381
2.47276
2.49192
2.51131
2.53092
2.55076
2.57083
2.59114
2.61169
2.63248
2.65351
2.6748
2.69634
2.71813
2.74019
2.76251
2.78511
2.80798
2.83112
2.85455
2.87827
2.90227
2.92658
2.95118
2.97609
3.00131
3.02684
3.0527
3.07888
3.1054
3.13225
3.15944
3.18698
3.21488
3.24313
3.27176
3.30076
3.33014
3.3599
3.39006
3.42062
3.45159
3.48298
3.5148
3.54704
3.57973
3.61287
3.64646
3.68052
3.71506
3.75008
3.7856
3.82162
3.85816
3.89522
3.93281
3.97095
4.00965
4.04891
4.08875
4.12917
4.17019
4.21183
4.25409
4.29698
4.34051
4.38471
4.42958
4.47513
4.52138
4.56835
4.61604
4.66446
4.71365
4.7636
4.81434
4.86588
4.91824
4.97144
5.02548
5.0804
5.1362
5.19292
5.25056
5.30915
5.3687
5.42925
5.49081
5.5534
5.61705
5.68178
5.7471
5.81366
5.88197
5.9514
6.02203
6.0939
6.16705
6.24151
6.31732
6.39451
6.47311
6.55316
6.6347
6.71776
6.8024
6.88864
6.97653
7.06612
7.15745
7.25057
7.34553
7.44238
7.54116
7.64195
7.74478
7.84972
7.95682
8.06615
8.17777
8.29175
8.40815
8.52704
8.64849
8.77257
8.89938
9.02897
9.16143
9.29686
9.43533
9.57693
9.72177
9.86992
10.0215
10.1766
10.3353
10.4978
10.6642
10.8345
11.0089
11.1875
11.3704
11.5579
11.75
11.947
12.1489
12.3559
12.5682
12.786
13.0094
13.2386
13.4739
13.7154
13.9634
14.2179
14.4794
14.748
15.024
15.3076
15.5991
15.8988
16.207
16.5241
16.8504
17.1862
17.5319
17.8879
18.2547
18.6327
19.0223
19.4242
19.8387
20.2664
20.708
21.1641
21.6352
22.1221
22.6256
23.1463
23.6851
24.2428
24.8203
25.4185
26.0386
26.6814
27.3482
28.0401
28.7584
29.5044
30.2796
31.0855
31.9237
32.7959
33.704
34.65
35.636
36.6645
37.7377
38.8586
40.0298
41.2546
42.5363
43.8785
45.285
46.7601
48.3081
49.93
51.6222
53.4191
55.3114
57.3052
59.4077
61.6265
63.9698
66.4468
69.0671
71.8415
74.7818
77.9011
81.2138
84.7359
88.4687
92.4263
96.6901
101.251
106.139
111.386
117.031
123.116
129.692
136.812
144.495
152.81
161.953
171.951
182.913
194.967
208.259
222.959
239.265
257.407
277.659
300.341
325.835
354.604
387.205
424.323
466.805
515.706
572.357
638.447
716.144
808.265
918.504
1051.79
1214.81
1416.81
1669.55
1990.35
2409.71
2966.26
3724.18
4784.45
6317.74
8629.49
12268.5
18395.8
29713.6
53169
108240
254728
714889
2.44447e+06
1.00414e+07
2.74483e+07
248270
777.351
5.16266
0.137659
0.013654
0.00349067
0.0016157
0.00105663
0.000838551
0.000739945
0.000691814
0.000667156
0.000654269
0.000647589
0.000643972
0.000642032
0.000640992
0.000640475
0.000640157
0.000639989
0.000639902
0.000639857
0.000639835
0.000639826
0.000639823
0.000639823
0.000639742
0.000639828
0.000639832
0.000639836
0.000639839
0.000639843
0.000639765
0.000639852
0.000639857
0.00063986
0.000639864
0.000639869
0.000639873
0.000639878
0.000639883
0.000639805
0.000639891
0.000639896
0.000639899
0.000639821
0.000639907
0.000639912
0.000639916
0.000639837
0.000639924
0.000639929
0.000639933
0.000639939
0.000639944
0.000639948
0.00063987
0.000639957
0.000639961
0.000639883
0.000639969
0.000639974
0.000639977
0.000639981
0.000639986
0.00063999
0.000639994
0.000639999
0.000640004
0.000640008
0.000640012
0.000640016
0.000640019
0.000640024
0.000640028
0.000640035
0.000639956
0.000640042
0.000640046
0.000640052
0.000640055
0.000640061
0.000640067
0.000640071
0.000640075
0.00064008
0.000640084
0.000640088
0.000640091
0.000640096
0.000640099
0.000640105
0.000640109
0.000640115
0.000640118
0.000640123
0.000640128
0.000640132
0.000640136
0.000640141
0.000640145
0.000640067
0.000640152
0.000640158
0.000640162
0.000640166
0.000640169
0.000640092
0.000640178
0.000640181
0.000640187
0.000640191
0.000640114
0.000640201
0.000640205
0.000640209
0.000640214
0.000640218
0.000640222
0.000640225
0.000640231
0.000640236
0.000640239
0.000640245
0.000640248
0.000640171
0.000640174
0.00064026
0.000640265
0.000640269
0.000640275
0.00064028
0.000640283
0.000640287
0.00064029
0.000640295
0.0006403
0.000640304
0.00064031
0.000640315
0.00064032
0.000640323
0.000640244
0.000640249
0.000640336
0.00064034
0.000640347
0.000640268
0.000640354
0.000640359
0.000640363
0.000640367
0.000640372
0.000640376
0.00064038
0.000640384
0.000640388
0.000640393
0.000640397
0.000640401
0.000640405
0.00064041
0.000640332
0.000640418
0.000640423
0.000640427
0.000640431
0.000640436
0.000640441
0.000640444
0.000640449
0.000640453
0.000640457
0.000640463
0.000640467
0.000640472
0.000640476
0.00064048
0.000640484
0.000640488
0.000640493
0.000640497
0.000640501
0.000640506
0.000640509
0.000640515
0.000640519
0.000640441
0.000640527
0.000640448
0.000640452
0.000640456
0.000640542
0.000640547
0.000640552
0.000640474
0.00064048
0.000640486
0.00064049
0.000640495
0.000640499
0.000640505
0.000640509
0.000640515
0.000640519
0.000640523
0.000640527
0.00064053
0.000640534
0.000640539
0.000640544
0.000640549
0.000640553
0.000640558
0.000640562
0.000640566
0.000640571
0.000640574
0.00064058
0.000640584
0.000640587
0.000640592
0.000640596
0.000640599
0.000640605
0.000640608
0.000640613
0.000640618
0.000640623
0.000640627
0.00064063
0.000640635
0.000640638
0.000640644
0.000640647
0.000640651
0.000640656
0.00064066
0.000640666
0.00064067
0.000640674
0.000640679
0.000640685
0.000640689
0.000640693
0.000640697
0.000640704
0.000640707
0.000640712
0.000640715
0.000640719
0.000640724
0.000640727
0.000640731
0.000640738
0.000640741
0.000640746
0.000640751
0.000640754
0.000640759
0.000640763
0.000640769
0.000640774
0.000640778
0.000640782
0.000640786
0.00064079
0.000640794
0.000640798
0.000640803
0.000640807
0.000640812
0.000640818
0.000640822
0.000640826
0.000640831
0.000640835
0.000640839
0.000640844
0.000640849
0.000640853
0.000640857
0.000640861
0.000640864
0.000640869
0.000640875
0.000640878
0.000640882
0.000640888
0.000640893
0.000640897
0.000640902
0.000640905
0.000640911
0.000640915
0.000640919
0.000640924
0.000640928
0.000640932
0.000640937
0.000640942
0.000640946
0.000640951
0.000640954
0.000640959
0.000640963
0.000640967
0.000640971
0.000640976
0.000640981
0.000640986
0.000640991
0.000640994
0.000640999
0.000641004
0.000641008
0.000641012
0.000641016
0.000641021
0.000641024
0.00064103
0.000641034
0.000641037
0.000641042
0.000641048
0.000641052
0.000641056
0.00064106
0.000641063
0.00064107
0.000641075
0.000641079
0.000641084
0.000641087
0.000641092
0.000641097
0.000641101
0.000641105
0.000641109
0.000641114
0.00064112
0.000641123
0.000641128
0.000641132
0.000641136
0.000641141
0.000641146
0.000641152
0.000641155
0.000641161
0.000641166
0.00064117
0.000641174
0.000641177
0.000641181
0.000641187
0.00064119
0.000641195
0.0006412
0.000641203
0.000641207
0.000641211
0.000641217
0.00064122
0.000641226
0.000641232
0.000641236
0.00064124
0.000641243
0.000641247
0.000641171
0.000641174
0.000641178
0.000641266
0.000641189
0.000641193
0.000641279
0.000641201
0.000641287
0.000641292
0.000641214
0.000641218
0.000641306
0.000641227
0.000641314
0.000641235
0.000641241
0.000641246
0.000641249
0.000641337
0.000641258
0.000641264
0.000641268
0.000641272
0.000641275
0.000641281
0.000641367
0.00064129
0.000641294
0.000641298
0.000641303
0.000641308
0.000641312
0.000641317
0.00064132
0.000641327
0.000641331
0.000641335
0.000641421
0.000641344
0.000641348
0.000641352
0.000641358
0.000641362
0.000641366
0.00064137
0.000641375
0.00064138
0.000641383
0.000641389
0.000641392
0.000641397
0.000641401
0.000641406
0.00064141
0.000641414
0.000641419
0.000641423
0.000641429
0.000641434
0.000641437
0.000641442
0.000641529
0.000641451
0.000641456
0.000641543
0.000641464
0.000641468
0.000641474
0.00064156
0.000641483
0.000641486
0.000641491
0.000641495
0.000641501
0.000641587
0.000641509
0.000641513
0.000641518
0.000641521
0.000641526
0.000641532
0.000641535
0.000641539
0.000641543
0.000641549
0.000641552
0.000641639
0.000641561
0.000641566
0.00064157
0.000641656
0.000641577
0.000641581
0.000641587
0.000641592
0.000641597
0.000641603
0.000641607
0.000641614
0.000641701
0.000641622
0.000641626
0.000641631
0.000641637
0.000641724
0.000641727
0.000641649
0.000641653
0.000641657
0.000641746
0.000641749
0.000641672
0.000641675
0.00064168
0.000641684
0.000641688
0.000641694
0.000641698
0.000641702
0.000641706
0.000641794
0.000641715
0.000641719
0.000641724
0.000641728
0.000641732
0.000641737
0.000641741
0.000641745
0.000641751
0.000641754
0.000641758
0.000641761
0.000641765
0.000641771
0.000641858
0.000641862
0.000641784
0.000641872
0.000641795
0.0006418
0.000641804
0.000641808
0.000641812
0.000641816
0.000641821
0.000641825
0.000641912
0.000641835
0.00064184
0.000641845
0.000641849
0.000641853
0.000641858
)
;

boundaryField
{
    fixedWall
    {
        type            calculated;
        value           uniform 0;
    }
    outlet
    {
        type            calculated;
        value           uniform 0;
    }
    defaultFaces
    {
        type            empty;
    }
}


// ************************************************************************* //
