/*--------------------------------*- C++ -*----------------------------------*\
| =========                 |                                                 |
| \\      /  F ield         | OpenFOAM: The Open Source CFD Toolbox           |
|  \\    /   O peration     | Version:  2406                                  |
|   \\  /    A nd           | Website:  www.openfoam.com                      |
|    \\/     M anipulation  |                                                 |
\*---------------------------------------------------------------------------*/
FoamFile
{
    version     2.0;
    format      ascii;
    arch        "LSB;label=32;scalar=64";
    class       volScalarField;
    location    "3";
    object      T;
}
// * * * * * * * * * * * * * * * * * * * * * * * * * * * * * * * * * * * * * //

dimensions      [0 0 0 1 0 0 0];

internalField   nonuniform List<scalar> 
1000
(
317.794
360.435
397.808
431.191
461.404
489.014
514.431
537.965
559.856
580.293
599.432
617.399
634.301
650.228
665.257
679.454
692.878
705.582
717.61
729.005
739.803
750.038
759.74
768.939
777.66
785.928
793.765
801.192
808.229
814.895
821.207
827.182
832.836
838.184
843.239
848.016
852.527
856.786
860.803
864.591
868.159
871.519
874.681
877.655
880.448
883.072
885.533
887.841
890.002
892.026
893.918
895.686
897.337
898.877
900.312
901.648
902.891
904.046
905.118
906.112
907.033
907.885
908.673
909.401
910.072
910.69
911.258
911.779
912.255
912.695
913.098
913.466
913.803
914.109
914.388
914.642
914.872
915.08
915.268
915.438
915.591
915.728
915.852
915.962
916.061
916.148
916.226
916.295
916.356
916.41
916.456
916.497
916.533
916.563
916.59
916.612
916.631
916.647
916.66
916.67
916.679
916.686
916.691
916.694
916.697
916.698
916.699
916.698
916.697
916.696
916.694
916.691
916.689
916.686
916.683
916.68
916.677
916.674
916.671
916.668
916.665
916.662
916.659
916.656
916.653
916.651
916.649
916.646
916.644
916.642
916.64
916.639
916.637
916.636
916.634
916.633
916.632
916.631
916.63
916.63
916.629
916.628
916.628
916.627
916.627
916.627
916.626
916.626
916.626
916.626
916.625
916.625
916.625
916.625
916.625
916.625
916.625
916.625
916.625
916.625
916.625
916.625
916.625
916.624
916.624
916.624
916.624
916.624
916.624
916.623
916.623
916.623
916.622
916.622
916.622
916.621
916.621
916.62
916.62
916.619
916.618
916.618
916.617
916.616
916.615
916.615
916.614
916.613
916.612
916.611
916.61
916.609
916.608
916.607
916.605
916.604
916.603
916.602
916.6
916.599
916.598
916.596
916.595
916.593
916.592
916.59
916.589
916.587
916.586
916.584
916.582
916.581
916.579
916.577
916.576
916.574
916.572
916.571
916.569
916.567
916.565
916.564
916.562
916.56
916.559
916.557
916.555
916.553
916.552
916.55
916.548
916.547
916.545
916.543
916.542
916.54
916.539
916.537
916.535
916.534
916.532
916.531
916.529
916.528
916.526
916.525
916.523
916.522
916.52
916.519
916.517
916.516
916.514
916.513
916.511
916.51
916.508
916.507
916.505
916.504
916.503
916.501
916.5
916.499
916.497
916.496
916.495
916.493
916.492
916.491
916.49
916.489
916.488
916.487
916.486
916.485
916.484
916.483
916.483
916.482
916.481
916.481
916.48
916.48
916.48
916.479
916.479
916.479
916.478
916.478
916.478
916.478
916.478
916.478
916.478
916.478
916.479
916.479
916.479
916.479
916.479
916.48
916.48
916.48
916.48
916.481
916.481
916.481
916.481
916.482
916.482
916.482
916.483
916.483
916.483
916.483
916.484
916.484
916.484
916.485
916.485
916.485
916.486
916.486
916.486
916.487
916.487
916.487
916.488
916.488
916.488
916.488
916.489
916.489
916.489
916.489
916.49
916.49
916.49
916.49
916.49
916.491
916.491
916.491
916.491
916.491
916.491
916.491
916.491
916.491
916.492
916.492
916.492
916.492
916.493
916.493
916.494
916.494
916.495
916.496
916.496
916.497
916.498
916.5
916.501
916.502
916.504
916.505
916.507
916.508
916.51
916.511
916.513
916.514
916.516
916.517
916.519
916.52
916.521
916.523
916.524
916.525
916.526
916.526
916.527
916.528
916.529
916.529
916.53
916.531
916.532
916.532
916.533
916.534
916.535
916.536
916.537
916.539
916.54
916.541
916.542
916.544
916.545
916.546
916.547
916.547
916.548
916.548
916.548
916.547
916.547
916.546
916.545
916.543
916.542
916.54
916.539
916.537
916.536
916.535
916.534
916.534
916.533
916.534
916.534
916.535
916.537
916.538
916.539
916.541
916.542
916.542
916.542
916.541
916.539
916.536
916.531
916.525
916.516
916.506
916.494
916.48
916.464
916.446
916.427
916.406
916.385
916.362
916.339
916.316
916.293
916.272
916.252
916.235
916.22
916.209
916.202
916.2
916.202
916.208
916.219
916.233
916.249
916.264
916.278
916.286
916.283
916.251
916.146
915.853
915.088
913.022
906.7
884.24
784.766
591.214
464.499
388.129
344.71
320.842
307.929
300.99
297.269
295.276
294.208
293.636
293.329
293.165
293.076
293.029
293.004
292.99
292.983
292.979
292.977
292.976
292.976
292.975
292.975
292.975
292.975
292.975
292.975
292.975
292.975
292.975
292.975
292.975
292.975
292.975
292.975
292.975
292.975
292.976
292.976
292.976
292.976
292.976
292.976
292.976
292.976
292.976
292.976
292.976
292.976
292.976
292.976
292.976
292.976
292.976
292.976
292.976
292.976
292.976
292.976
292.976
292.976
292.976
292.976
292.976
292.977
292.977
292.977
292.977
292.977
292.977
292.977
292.977
292.977
292.977
292.977
292.977
292.977
292.977
292.977
292.977
292.977
292.977
292.977
292.977
292.977
292.977
292.977
292.977
292.977
292.977
292.977
292.978
292.978
292.978
292.978
292.978
292.978
292.978
292.978
292.978
292.978
292.978
292.978
292.978
292.978
292.978
292.978
292.978
292.978
292.978
292.978
292.978
292.978
292.978
292.978
292.978
292.978
292.979
292.979
292.979
292.979
292.979
292.979
292.979
292.979
292.979
292.979
292.979
292.979
292.979
292.979
292.979
292.979
292.979
292.979
292.979
292.979
292.979
292.979
292.979
292.979
292.979
292.979
292.979
292.98
292.98
292.98
292.98
292.98
292.98
292.98
292.98
292.98
292.98
292.98
292.98
292.98
292.98
292.98
292.98
292.98
292.98
292.98
292.98
292.98
292.98
292.98
292.98
292.98
292.98
292.98
292.981
292.981
292.981
292.981
292.981
292.981
292.981
292.981
292.981
292.981
292.981
292.981
292.981
292.981
292.981
292.981
292.981
292.981
292.981
292.981
292.981
292.981
292.981
292.981
292.981
292.981
292.982
292.982
292.982
292.982
292.982
292.982
292.982
292.982
292.982
292.982
292.982
292.982
292.982
292.982
292.982
292.982
292.982
292.982
292.982
292.982
292.982
292.982
292.982
292.982
292.982
292.982
292.982
292.983
292.983
292.983
292.983
292.983
292.983
292.983
292.983
292.983
292.983
292.983
292.983
292.983
292.983
292.983
292.983
292.983
292.983
292.983
292.983
292.983
292.983
292.983
292.983
292.983
292.983
292.984
292.984
292.984
292.984
292.984
292.984
292.984
292.984
292.984
292.984
292.984
292.984
292.984
292.984
292.984
292.984
292.984
292.984
292.984
292.984
292.984
292.984
292.984
292.984
292.984
292.984
292.985
292.985
292.985
292.985
292.985
292.985
292.985
292.985
292.985
292.985
292.985
292.985
292.985
292.985
292.985
292.985
292.985
292.985
292.985
292.985
292.985
292.985
292.985
292.985
292.985
292.985
292.985
292.986
292.986
292.986
292.986
292.986
292.986
292.986
292.986
292.986
292.986
292.986
292.986
292.986
292.986
292.986
292.986
292.986
292.986
292.986
292.986
292.986
292.986
292.986
292.986
292.986
292.986
292.987
292.987
292.987
292.987
292.987
292.987
292.987
292.987
292.987
292.987
292.987
292.987
292.987
292.987
292.987
292.987
292.987
292.987
292.987
292.987
292.987
292.987
292.987
292.987
292.987
292.987
292.988
292.988
292.988
292.988
292.988
292.988
292.988
292.988
292.988
292.988
292.988
292.988
292.988
292.988
292.988
292.988
292.988
292.988
292.988
292.988
292.988
292.988
292.988
292.988
292.988
292.988
292.989
292.989
292.989
292.989
292.989
292.989
292.989
292.989
292.989
292.989
292.989
292.989
292.989
292.989
292.989
292.989
292.989
292.989
292.989
292.989
292.989
292.989
292.989
292.989
292.989
292.989
292.99
292.99
292.99
292.99
292.99
292.99
292.99
292.99
292.99
292.99
292.99
292.99
292.99
292.99
292.99
292.99
292.99
292.99
292.99
292.99
292.99
292.99
292.99
292.99
292.99
292.99
292.99
292.991
292.991
292.991
292.991
292.991
292.991
292.991
292.991
292.991
292.991
292.991
292.991
292.991
292.991
292.991
292.991
292.991
292.991
292.991
292.991
292.991
292.991
292.991
292.991
292.991
292.991
292.992
292.992
292.992
292.992
292.992
292.992
292.992
292.992
292.992
292.992
292.992
292.992
292.992
292.992
292.992
292.992
292.992
292.992
292.992
292.992
292.992
292.992
292.992
292.992
292.992
292.993
292.993
292.993
292.993
292.993
292.993
292.993
292.993
292.993
292.993
292.993
292.993
292.993
292.993
292.993
292.993
292.993
292.993
292.993
292.993
292.993
292.993
292.993
292.993
292.993
292.993
292.993
292.994
292.994
292.994
292.994
292.994
292.994
292.994
292.994
292.994
292.994
292.994
292.994
)
;

boundaryField
{
    fixedWall
    {
        type            fixedValue;
        value           uniform 293;
    }
    outlet
    {
        type            inletOutlet;
        inletValue      uniform 293;
        value           uniform 292.994;
    }
    defaultFaces
    {
        type            empty;
    }
}


// ************************************************************************* //
