/*--------------------------------*- C++ -*----------------------------------*\
| =========                 |                                                 |
| \\      /  F ield         | OpenFOAM: The Open Source CFD Toolbox           |
|  \\    /   O peration     | Version:  2406                                  |
|   \\  /    A nd           | Website:  www.openfoam.com                      |
|    \\/     M anipulation  |                                                 |
\*---------------------------------------------------------------------------*/
FoamFile
{
    version     2.0;
    format      ascii;
    arch        "LSB;label=32;scalar=64";
    class       volVectorField;
    location    "3";
    object      U;
}
// * * * * * * * * * * * * * * * * * * * * * * * * * * * * * * * * * * * * * //

dimensions      [0 1 -1 0 0 0 0];

internalField   nonuniform List<vector> 
1000
(
(-6.33088e-06 0 0)
(-2.92908e-05 0 0)
(-7.17382e-05 0 0)
(-0.000125957 0 0)
(-0.000188096 0 0)
(-0.000256022 0 0)
(-0.000328297 0 0)
(-0.00040382 0 0)
(-0.000481723 0 0)
(-0.000561325 0 0)
(-0.000642077 0 0)
(-0.000723531 0 0)
(-0.000805316 0 0)
(-0.000887119 0 0)
(-0.000968672 0 0)
(-0.00104975 0 0)
(-0.00113015 0 0)
(-0.0012097 0 0)
(-0.00128826 0 0)
(-0.00136569 0 0)
(-0.00144189 0 0)
(-0.00151674 0 0)
(-0.00159017 0 0)
(-0.00166209 0 0)
(-0.00173245 0 0)
(-0.00180118 0 0)
(-0.00186825 0 0)
(-0.0019336 0 0)
(-0.00199722 0 0)
(-0.00205906 0 0)
(-0.00211912 0 0)
(-0.00217737 0 0)
(-0.00223382 0 0)
(-0.00228845 0 0)
(-0.00234127 0 0)
(-0.00239228 0 0)
(-0.00244149 0 0)
(-0.00248891 0 0)
(-0.00253457 0 0)
(-0.00257847 0 0)
(-0.00262064 0 0)
(-0.0026611 0 0)
(-0.00269989 0 0)
(-0.00273703 0 0)
(-0.00277255 0 0)
(-0.00280649 0 0)
(-0.00283887 0 0)
(-0.00286975 0 0)
(-0.00289914 0 0)
(-0.00292711 0 0)
(-0.00295367 0 0)
(-0.00297888 0 0)
(-0.00300277 0 0)
(-0.00302538 0 0)
(-0.00304676 0 0)
(-0.00306696 0 0)
(-0.003086 0 0)
(-0.00310393 0 0)
(-0.0031208 0 0)
(-0.00313665 0 0)
(-0.00315152 0 0)
(-0.00316544 0 0)
(-0.00317847 0 0)
(-0.00319063 0 0)
(-0.00320198 0 0)
(-0.00321253 0 0)
(-0.00322232 0 0)
(-0.00323139 0 0)
(-0.00323981 0 0)
(-0.00324761 0 0)
(-0.0032548 0 0)
(-0.00326141 0 0)
(-0.00326748 0 0)
(-0.00327306 0 0)
(-0.00327814 0 0)
(-0.00328279 0 0)
(-0.00328701 0 0)
(-0.00329082 0 0)
(-0.00329426 0 0)
(-0.00329735 0 0)
(-0.00330011 0 0)
(-0.00330261 0 0)
(-0.00330473 0 0)
(-0.00330667 0 0)
(-0.00330833 0 0)
(-0.00330975 0 0)
(-0.00331101 0 0)
(-0.003312 0 0)
(-0.00331286 0 0)
(-0.00331353 0 0)
(-0.00331406 0 0)
(-0.00331444 0 0)
(-0.00331469 0 0)
(-0.00331482 0 0)
(-0.00331484 0 0)
(-0.00331476 0 0)
(-0.00331459 0 0)
(-0.00331433 0 0)
(-0.003314 0 0)
(-0.0033136 0 0)
(-0.00331314 0 0)
(-0.00331261 0 0)
(-0.00331204 0 0)
(-0.00331143 0 0)
(-0.00331076 0 0)
(-0.00331007 0 0)
(-0.00330933 0 0)
(-0.00330857 0 0)
(-0.00330778 0 0)
(-0.00330697 0 0)
(-0.00330613 0 0)
(-0.00330529 0 0)
(-0.00330441 0 0)
(-0.00330353 0 0)
(-0.00330263 0 0)
(-0.00330172 0 0)
(-0.0033008 0 0)
(-0.00329988 0 0)
(-0.00329894 0 0)
(-0.003298 0 0)
(-0.00329705 0 0)
(-0.0032961 0 0)
(-0.00329515 0 0)
(-0.00329419 0 0)
(-0.00329323 0 0)
(-0.00329227 0 0)
(-0.00329131 0 0)
(-0.00329034 0 0)
(-0.00328938 0 0)
(-0.00328841 0 0)
(-0.00328745 0 0)
(-0.00328648 0 0)
(-0.00328551 0 0)
(-0.00328455 0 0)
(-0.00328359 0 0)
(-0.00328262 0 0)
(-0.00328166 0 0)
(-0.0032807 0 0)
(-0.00327974 0 0)
(-0.00327878 0 0)
(-0.00327782 0 0)
(-0.00327686 0 0)
(-0.0032759 0 0)
(-0.00327494 0 0)
(-0.00327399 0 0)
(-0.00327303 0 0)
(-0.00327208 0 0)
(-0.00327113 0 0)
(-0.00327017 0 0)
(-0.00326922 0 0)
(-0.00326827 0 0)
(-0.00326733 0 0)
(-0.00326637 0 0)
(-0.00326542 0 0)
(-0.00326447 0 0)
(-0.00326352 0 0)
(-0.00326258 0 0)
(-0.00326163 0 0)
(-0.00326068 0 0)
(-0.00325973 0 0)
(-0.00325878 0 0)
(-0.00325784 0 0)
(-0.00325689 0 0)
(-0.00325594 0 0)
(-0.003255 0 0)
(-0.00325405 0 0)
(-0.0032531 0 0)
(-0.00325215 0 0)
(-0.00325121 0 0)
(-0.00325026 0 0)
(-0.00324931 0 0)
(-0.00324836 0 0)
(-0.00324741 0 0)
(-0.00324646 0 0)
(-0.00324552 0 0)
(-0.00324457 0 0)
(-0.00324362 0 0)
(-0.00324267 0 0)
(-0.00324172 0 0)
(-0.00324076 0 0)
(-0.00323981 0 0)
(-0.00323886 0 0)
(-0.00323791 0 0)
(-0.00323696 0 0)
(-0.003236 0 0)
(-0.00323505 0 0)
(-0.00323409 0 0)
(-0.00323314 0 0)
(-0.00323218 0 0)
(-0.00323123 0 0)
(-0.00323027 0 0)
(-0.00322931 0 0)
(-0.00322836 0 0)
(-0.0032274 0 0)
(-0.00322644 0 0)
(-0.00322548 0 0)
(-0.00322452 0 0)
(-0.00322355 0 0)
(-0.00322259 0 0)
(-0.00322163 0 0)
(-0.00322067 0 0)
(-0.0032197 0 0)
(-0.00321873 0 0)
(-0.00321777 0 0)
(-0.0032168 0 0)
(-0.00321583 0 0)
(-0.00321487 0 0)
(-0.00321389 0 0)
(-0.00321293 0 0)
(-0.00321194 0 0)
(-0.00321098 0 0)
(-0.00321 0 0)
(-0.00320902 0 0)
(-0.00320805 0 0)
(-0.00320706 0 0)
(-0.0032061 0 0)
(-0.00320511 0 0)
(-0.00320414 0 0)
(-0.00320315 0 0)
(-0.00320216 0 0)
(-0.00320118 0 0)
(-0.0032002 0 0)
(-0.00319921 0 0)
(-0.00319823 0 0)
(-0.00319724 0 0)
(-0.00319625 0 0)
(-0.00319526 0 0)
(-0.00319427 0 0)
(-0.00319328 0 0)
(-0.00319229 0 0)
(-0.00319129 0 0)
(-0.0031903 0 0)
(-0.0031893 0 0)
(-0.00318831 0 0)
(-0.00318731 0 0)
(-0.00318632 0 0)
(-0.00318532 0 0)
(-0.00318432 0 0)
(-0.00318332 0 0)
(-0.00318232 0 0)
(-0.00318132 0 0)
(-0.00318032 0 0)
(-0.00317932 0 0)
(-0.00317832 0 0)
(-0.00317731 0 0)
(-0.00317631 0 0)
(-0.00317531 0 0)
(-0.0031743 0 0)
(-0.0031733 0 0)
(-0.00317229 0 0)
(-0.00317129 0 0)
(-0.00317028 0 0)
(-0.00316927 0 0)
(-0.00316826 0 0)
(-0.00316725 0 0)
(-0.00316624 0 0)
(-0.00316523 0 0)
(-0.00316421 0 0)
(-0.0031632 0 0)
(-0.00316218 0 0)
(-0.00316117 0 0)
(-0.00316015 0 0)
(-0.00315913 0 0)
(-0.00315811 0 0)
(-0.00315709 0 0)
(-0.00315606 0 0)
(-0.00315504 0 0)
(-0.00315401 0 0)
(-0.00315298 0 0)
(-0.00315196 0 0)
(-0.00315092 0 0)
(-0.00314989 0 0)
(-0.00314886 0 0)
(-0.00314782 0 0)
(-0.00314679 0 0)
(-0.00314575 0 0)
(-0.00314471 0 0)
(-0.00314367 0 0)
(-0.00314263 0 0)
(-0.00314159 0 0)
(-0.00314054 0 0)
(-0.0031395 0 0)
(-0.00313845 0 0)
(-0.00313741 0 0)
(-0.00313636 0 0)
(-0.00313531 0 0)
(-0.00313426 0 0)
(-0.00313322 0 0)
(-0.00313217 0 0)
(-0.00313112 0 0)
(-0.00313007 0 0)
(-0.00312902 0 0)
(-0.00312797 0 0)
(-0.00312692 0 0)
(-0.00312586 0 0)
(-0.00312481 0 0)
(-0.00312376 0 0)
(-0.00312271 0 0)
(-0.00312166 0 0)
(-0.0031206 0 0)
(-0.00311955 0 0)
(-0.0031185 0 0)
(-0.00311745 0 0)
(-0.00311639 0 0)
(-0.00311534 0 0)
(-0.00311427 0 0)
(-0.00311322 0 0)
(-0.00311218 0 0)
(-0.0031111 0 0)
(-0.00311007 0 0)
(-0.00310898 0 0)
(-0.00310793 0 0)
(-0.00310688 0 0)
(-0.0031058 0 0)
(-0.00310476 0 0)
(-0.00310367 0 0)
(-0.00310263 0 0)
(-0.00310154 0 0)
(-0.00310048 0 0)
(-0.00309942 0 0)
(-0.00309836 0 0)
(-0.00309727 0 0)
(-0.0030962 0 0)
(-0.00309514 0 0)
(-0.00309405 0 0)
(-0.00309299 0 0)
(-0.00309191 0 0)
(-0.00309084 0 0)
(-0.00308976 0 0)
(-0.00308868 0 0)
(-0.0030876 0 0)
(-0.00308652 0 0)
(-0.00308544 0 0)
(-0.00308436 0 0)
(-0.00308328 0 0)
(-0.0030822 0 0)
(-0.00308112 0 0)
(-0.00308004 0 0)
(-0.00307895 0 0)
(-0.00307787 0 0)
(-0.00307678 0 0)
(-0.00307569 0 0)
(-0.0030746 0 0)
(-0.00307351 0 0)
(-0.00307242 0 0)
(-0.00307132 0 0)
(-0.00307022 0 0)
(-0.00306912 0 0)
(-0.00306801 0 0)
(-0.00306691 0 0)
(-0.00306579 0 0)
(-0.00306468 0 0)
(-0.00306356 0 0)
(-0.00306244 0 0)
(-0.00306131 0 0)
(-0.00306019 0 0)
(-0.00305908 0 0)
(-0.00305793 0 0)
(-0.00305679 0 0)
(-0.00305566 0 0)
(-0.00305452 0 0)
(-0.00305337 0 0)
(-0.00305224 0 0)
(-0.00305108 0 0)
(-0.00304996 0 0)
(-0.00304881 0 0)
(-0.00304765 0 0)
(-0.00304652 0 0)
(-0.00304537 0 0)
(-0.00304424 0 0)
(-0.00304309 0 0)
(-0.00304196 0 0)
(-0.00304083 0 0)
(-0.00303969 0 0)
(-0.00303856 0 0)
(-0.00303743 0 0)
(-0.00303631 0 0)
(-0.00303517 0 0)
(-0.00303406 0 0)
(-0.00303291 0 0)
(-0.0030318 0 0)
(-0.00303066 0 0)
(-0.00302951 0 0)
(-0.0030284 0 0)
(-0.00302722 0 0)
(-0.0030261 0 0)
(-0.00302493 0 0)
(-0.00302375 0 0)
(-0.00302261 0 0)
(-0.00302143 0 0)
(-0.00302023 0 0)
(-0.00301907 0 0)
(-0.00301788 0 0)
(-0.00301665 0 0)
(-0.0030155 0 0)
(-0.00301427 0 0)
(-0.00301306 0 0)
(-0.00301189 0 0)
(-0.00301067 0 0)
(-0.0030095 0 0)
(-0.00300828 0 0)
(-0.0030071 0 0)
(-0.00300595 0 0)
(-0.00300475 0 0)
(-0.00300359 0 0)
(-0.00300243 0 0)
(-0.00300126 0 0)
(-0.00300013 0 0)
(-0.00299894 0 0)
(-0.00299778 0 0)
(-0.00299665 0 0)
(-0.00299544 0 0)
(-0.00299429 0 0)
(-0.00299307 0 0)
(-0.00299182 0 0)
(-0.00299063 0 0)
(-0.00298933 0 0)
(-0.00298804 0 0)
(-0.00298673 0 0)
(-0.0029854 0 0)
(-0.00298404 0 0)
(-0.00298268 0 0)
(-0.0029813 0 0)
(-0.00297988 0 0)
(-0.00297851 0 0)
(-0.00297712 0 0)
(-0.00297575 0 0)
(-0.00297436 0 0)
(-0.00297305 0 0)
(-0.00297172 0 0)
(-0.00297042 0 0)
(-0.0029692 0 0)
(-0.00296797 0 0)
(-0.00296679 0 0)
(-0.00296565 0 0)
(-0.00296453 0 0)
(-0.00296346 0 0)
(-0.00296237 0 0)
(-0.00296129 0 0)
(-0.00296028 0 0)
(-0.00295914 0 0)
(-0.00295808 0 0)
(-0.00295689 0 0)
(-0.00295564 0 0)
(-0.00295435 0 0)
(-0.0029529 0 0)
(-0.00295139 0 0)
(-0.00294972 0 0)
(-0.00294771 0 0)
(-0.00294612 0 0)
(-0.0029432 0 0)
(-0.00294131 0 0)
(-0.0029383 0 0)
(-0.00293487 0 0)
(-0.00293206 0 0)
(-0.00292783 0 0)
(-0.0029239 0 0)
(-0.00291919 0 0)
(-0.00291424 0 0)
(-0.0029086 0 0)
(-0.00290259 0 0)
(-0.00289581 0 0)
(-0.00288814 0 0)
(-0.00287881 0 0)
(-0.00286776 0 0)
(-0.00285358 0 0)
(-0.002831 0 0)
(-0.00280091 0 0)
(-0.00273492 0 0)
(-0.00269978 0 0)
(-0.00282226 0 0)
(-0.00297663 0 0)
(-0.00559398 0 0)
(-0.00565034 0 0)
(0.0195007 0 0)
(0.0599017 0 0)
(0.0859111 0 0)
(0.098279 0 0)
(0.104021 0 0)
(0.106609 0 0)
(0.107788 0 0)
(0.10834 0 0)
(0.108642 0 0)
(0.10882 0 0)
(0.108851 0 0)
(0.10895 0 0)
(0.108935 0 0)
(0.108928 0 0)
(0.108994 0 0)
(0.108944 0 0)
(0.108985 0 0)
(0.108978 0 0)
(0.108957 0 0)
(0.10899 0 0)
(0.108964 0 0)
(0.108975 0 0)
(0.10901 0 0)
(0.108982 0 0)
(0.108937 0 0)
(0.109017 0 0)
(0.108978 0 0)
(0.108997 0 0)
(0.108975 0 0)
(0.108987 0 0)
(0.109009 0 0)
(0.108953 0 0)
(0.109019 0 0)
(0.109001 0 0)
(0.108983 0 0)
(0.108997 0 0)
(0.108992 0 0)
(0.109002 0 0)
(0.108999 0 0)
(0.10901 0 0)
(0.108987 0 0)
(0.109005 0 0)
(0.109007 0 0)
(0.109002 0 0)
(0.109007 0 0)
(0.109001 0 0)
(0.10902 0 0)
(0.109007 0 0)
(0.108997 0 0)
(0.109037 0 0)
(0.109016 0 0)
(0.108976 0 0)
(0.109045 0 0)
(0.109029 0 0)
(0.108984 0 0)
(0.109037 0 0)
(0.109027 0 0)
(0.109024 0 0)
(0.109019 0 0)
(0.109011 0 0)
(0.109043 0 0)
(0.109014 0 0)
(0.109028 0 0)
(0.109031 0 0)
(0.109034 0 0)
(0.109008 0 0)
(0.109054 0 0)
(0.109034 0 0)
(0.109014 0 0)
(0.109052 0 0)
(0.109023 0 0)
(0.10904 0 0)
(0.109041 0 0)
(0.109056 0 0)
(0.109003 0 0)
(0.109032 0 0)
(0.109094 0 0)
(0.109028 0 0)
(0.108998 0 0)
(0.109085 0 0)
(0.109057 0 0)
(0.10901 0 0)
(0.109073 0 0)
(0.109054 0 0)
(0.109039 0 0)
(0.109053 0 0)
(0.109048 0 0)
(0.109048 0 0)
(0.109077 0 0)
(0.109052 0 0)
(0.109016 0 0)
(0.109097 0 0)
(0.109068 0 0)
(0.109017 0 0)
(0.109091 0 0)
(0.109079 0 0)
(0.109022 0 0)
(0.109067 0 0)
(0.109097 0 0)
(0.109034 0 0)
(0.109059 0 0)
(0.109099 0 0)
(0.109062 0 0)
(0.10906 0 0)
(0.109045 0 0)
(0.10908 0 0)
(0.109114 0 0)
(0.109032 0 0)
(0.109073 0 0)
(0.109101 0 0)
(0.10905 0 0)
(0.109072 0 0)
(0.109107 0 0)
(0.109076 0 0)
(0.109037 0 0)
(0.109109 0 0)
(0.109077 0 0)
(0.109096 0 0)
(0.109067 0 0)
(0.109055 0 0)
(0.109133 0 0)
(0.109065 0 0)
(0.109081 0 0)
(0.10909 0 0)
(0.1091 0 0)
(0.109063 0 0)
(0.109108 0 0)
(0.109099 0 0)
(0.109057 0 0)
(0.109119 0 0)
(0.10911 0 0)
(0.109062 0 0)
(0.109101 0 0)
(0.109094 0 0)
(0.109111 0 0)
(0.109098 0 0)
(0.109073 0 0)
(0.109127 0 0)
(0.109107 0 0)
(0.109066 0 0)
(0.109103 0 0)
(0.109133 0 0)
(0.109107 0 0)
(0.10906 0 0)
(0.109116 0 0)
(0.109131 0 0)
(0.109068 0 0)
(0.109134 0 0)
(0.109119 0 0)
(0.109091 0 0)
(0.109112 0 0)
(0.109133 0 0)
(0.109079 0 0)
(0.109108 0 0)
(0.109137 0 0)
(0.109107 0 0)
(0.109122 0 0)
(0.109096 0 0)
(0.109111 0 0)
(0.109151 0 0)
(0.109086 0 0)
(0.109135 0 0)
(0.109125 0 0)
(0.109088 0 0)
(0.109148 0 0)
(0.109122 0 0)
(0.109118 0 0)
(0.109134 0 0)
(0.109102 0 0)
(0.109131 0 0)
(0.109133 0 0)
(0.109119 0 0)
(0.109144 0 0)
(0.109109 0 0)
(0.109138 0 0)
(0.109142 0 0)
(0.109091 0 0)
(0.109162 0 0)
(0.109132 0 0)
(0.109111 0 0)
(0.109161 0 0)
(0.109106 0 0)
(0.109161 0 0)
(0.109134 0 0)
(0.109127 0 0)
(0.109157 0 0)
(0.109096 0 0)
(0.10915 0 0)
(0.109163 0 0)
(0.109111 0 0)
(0.109163 0 0)
(0.109151 0 0)
(0.109106 0 0)
(0.109137 0 0)
(0.109198 0 0)
(0.109123 0 0)
(0.109102 0 0)
(0.109166 0 0)
(0.109157 0 0)
(0.109151 0 0)
(0.109124 0 0)
(0.109153 0 0)
(0.109175 0 0)
(0.109111 0 0)
(0.109178 0 0)
(0.109164 0 0)
(0.109118 0 0)
(0.109168 0 0)
(0.109158 0 0)
(0.109156 0 0)
(0.109141 0 0)
(0.109156 0 0)
(0.10916 0 0)
(0.109157 0 0)
(0.109149 0 0)
(0.109146 0 0)
(0.109202 0 0)
(0.109142 0 0)
(0.109123 0 0)
(0.109186 0 0)
(0.109171 0 0)
(0.109129 0 0)
(0.109185 0 0)
(0.109171 0 0)
(0.109141 0 0)
(0.10918 0 0)
(0.109168 0 0)
(0.109139 0 0)
(0.109188 0 0)
(0.109174 0 0)
(0.109144 0 0)
(0.109179 0 0)
(0.109171 0 0)
(0.109141 0 0)
(0.109203 0 0)
(0.109159 0 0)
(0.109172 0 0)
(0.109157 0 0)
(0.109171 0 0)
(0.109192 0 0)
(0.109142 0 0)
(0.109198 0 0)
(0.109157 0 0)
(0.109195 0 0)
(0.109172 0 0)
(0.109146 0 0)
(0.1092 0 0)
(0.109195 0 0)
(0.109151 0 0)
(0.109171 0 0)
(0.109189 0 0)
(0.109181 0 0)
(0.109191 0 0)
(0.109149 0 0)
(0.109198 0 0)
(0.10919 0 0)
(0.109156 0 0)
(0.109201 0 0)
(0.109167 0 0)
(0.109199 0 0)
(0.109181 0 0)
(0.109161 0 0)
(0.109207 0 0)
(0.109193 0 0)
(0.109166 0 0)
(0.109194 0 0)
(0.109186 0 0)
(0.109189 0 0)
(0.109171 0 0)
(0.109197 0 0)
(0.109206 0 0)
(0.109161 0 0)
(0.109208 0 0)
(0.109177 0 0)
(0.109207 0 0)
(0.109187 0 0)
(0.109194 0 0)
(0.109172 0 0)
(0.109194 0 0)
(0.109207 0 0)
(0.109173 0 0)
(0.109218 0 0)
(0.109183 0 0)
(0.1092 0 0)
(0.10919 0 0)
(0.109194 0 0)
(0.109194 0 0)
(0.109197 0 0)
(0.109204 0 0)
(0.109207 0 0)
(0.109172 0 0)
(0.109194 0 0)
(0.109217 0 0)
(0.109182 0 0)
(0.109215 0 0)
(0.109202 0 0)
(0.109192 0 0)
(0.109204 0 0)
(0.109194 0 0)
(0.10921 0 0)
(0.109213 0 0)
(0.109185 0 0)
(0.109207 0 0)
(0.109199 0 0)
(0.109211 0 0)
(0.109215 0 0)
(0.10919 0 0)
(0.109208 0 0)
(0.109198 0 0)
(0.109224 0 0)
(0.109207 0 0)
(0.109185 0 0)
(0.109228 0 0)
(0.109198 0 0)
(0.109208 0 0)
(0.109226 0 0)
(0.109202 0 0)
(0.109183 0 0)
(0.109237 0 0)
(0.109213 0 0)
(0.109186 0 0)
(0.109239 0 0)
(0.109199 0 0)
(0.109218 0 0)
(0.1092 0 0)
(0.109225 0 0)
(0.109204 0 0)
(0.109198 0 0)
(0.109247 0 0)
(0.10919 0 0)
(0.109228 0 0)
(0.109216 0 0)
(0.109191 0 0)
(0.109239 0 0)
(0.109224 0 0)
(0.109198 0 0)
(0.109218 0 0)
(0.109218 0 0)
(0.109218 0 0)
(0.109218 0 0)
(0.109223 0 0)
(0.109219 0 0)
(0.109204 0 0)
(0.109231 0 0)
(0.109211 0 0)
(0.109224 0 0)
(0.10923 0 0)
(0.109204 0 0)
(0.109225 0 0)
(0.109224 0 0)
(0.109221 0 0)
(0.10922 0 0)
(0.109226 0 0)
(0.109213 0 0)
(0.109239 0 0)
(0.109217 0 0)
(0.109203 0 0)
(0.109251 0 0)
(0.109205 0 0)
(0.109242 0 0)
(0.109221 0 0)
(0.109203 0 0)
(0.109252 0 0)
(0.10921 0 0)
(0.109233 0 0)
(0.109236 0 0)
(0.10921 0 0)
(0.109236 0 0)
(0.109218 0 0)
(0.109241 0 0)
(0.109226 0 0)
(0.109206 0 0)
(0.10925 0 0)
(0.109221 0 0)
(0.109233 0 0)
(0.109237 0 0)
(0.109211 0 0)
(0.109243 0 0)
(0.10923 0 0)
(0.1092 0 0)
(0.109266 0 0)
(0.109229 0 0)
(0.109208 0 0)
(0.109252 0 0)
(0.109237 0 0)
(0.109197 0 0)
(0.109247 0 0)
(0.109255 0 0)
(0.109198 0 0)
(0.109248 0 0)
(0.109223 0 0)
(0.109252 0 0)
(0.109228 0 0)
(0.109213 0 0)
(0.10926 0 0)
(0.109221 0 0)
(0.109244 0 0)
(0.109245 0 0)
(0.109206 0 0)
(0.109247 0 0)
(0.109258 0 0)
(0.109199 0 0)
(0.109257 0 0)
(0.109248 0 0)
(0.109195 0 0)
(0.109272 0 0)
(0.109241 0 0)
(0.109197 0 0)
(0.109272 0 0)
(0.10924 0 0)
(0.109215 0 0)
(0.109254 0 0)
(0.109223 0 0)
(0.109258 0 0)
(0.109239 0 0)
(0.109215 0 0)
(0.109262 0 0)
(0.109224 0 0)
(0.109255 0 0)
(0.109238 0 0)
(0.109213 0 0)
(0.109269 0 0)
(0.109235 0 0)
(0.10924 0 0)
(0.109229 0 0)
(0.109238 0 0)
(0.109262 0 0)
(0.109246 0 0)
(0.109202 0 0)
(0.10924 0 0)
(0.109272 0 0)
(0.109211 0 0)
(0.109271 0 0)
(0.109235 0 0)
(0.10922 0 0)
(0.109265 0 0)
(0.109251 0 0)
(0.109223 0 0)
(0.109244 0 0)
(0.109244 0 0)
(0.109255 0 0)
(0.109241 0 0)
(0.109243 0 0)
(0.109227 0 0)
(0.10925 0 0)
(0.109259 0 0)
(0.109218 0 0)
(0.109258 0 0)
(0.109242 0 0)
(0.109249 0 0)
(0.109248 0 0)
(0.10923 0 0)
(0.109245 0 0)
(0.109263 0 0)
(0.109227 0 0)
(0.109244 0 0)
(0.10925 0 0)
(0.109251 0 0)
(0.109246 0 0)
(0.109224 0 0)
(0.109267 0 0)
(0.10925 0 0)
(0.109222 0 0)
(0.109257 0 0)
(0.109269 0 0)
(0.109233 0 0)
(0.109235 0 0)
(0.109233 0 0)
(0.109259 0 0)
(0.109256 0 0)
(0.10924 0 0)
(0.109243 0 0)
(0.109255 0 0)
(0.109255 0 0)
(0.109226 0 0)
(0.109259 0 0)
(0.109265 0 0)
(0.109211 0 0)
(0.109267 0 0)
(0.109263 0 0)
(0.109213 0 0)
(0.109271 0 0)
(0.109245 0 0)
(0.109253 0 0)
(0.109233 0 0)
(0.109254 0 0)
(0.109249 0 0)
(0.109257 0 0)
(0.109246 0 0)
(0.109217 0 0)
(0.109273 0 0)
(0.109242 0 0)
(0.109261 0 0)
(0.109247 0 0)
(0.10923 0 0)
(0.109269 0 0)
(0.109239 0 0)
(0.109258 0 0)
(0.109258 0 0)
(0.109222 0 0)
(0.109261 0 0)
(0.10927 0 0)
(0.109216 0 0)
(0.109262 0 0)
(0.10926 0 0)
(0.10925 0 0)
(0.109216 0 0)
(0.109257 0 0)
(0.109268 0 0)
(0.109226 0 0)
(0.109272 0 0)
(0.109239 0 0)
(0.109254 0 0)
(0.10924 0 0)
(0.109262 0 0)
(0.109245 0 0)
(0.10924 0 0)
(0.109268 0 0)
(0.109236 0 0)
(0.109251 0 0)
(0.109252 0 0)
(0.109246 0 0)
(0.109249 0 0)
(0.109262 0 0)
(0.109235 0 0)
(0.109252 0 0)
)
;

boundaryField
{
    fixedWall
    {
        type            fixedValue;
        value           uniform (0 0 0);
    }
    outlet
    {
        type            pressureInletOutletVelocity;
        value           uniform (0.109252 0 0);
    }
    defaultFaces
    {
        type            empty;
    }
}


// ************************************************************************* //
