/*--------------------------------*- C++ -*----------------------------------*\
| =========                 |                                                 |
| \\      /  F ield         | OpenFOAM: The Open Source CFD Toolbox           |
|  \\    /   O peration     | Version:  2406                                  |
|   \\  /    A nd           | Website:  www.openfoam.com                      |
|    \\/     M anipulation  |                                                 |
\*---------------------------------------------------------------------------*/
FoamFile
{
    version     2.0;
    format      ascii;
    arch        "LSB;label=32;scalar=64";
    class       volVectorField;
    location    "8.6";
    object      U;
}
// * * * * * * * * * * * * * * * * * * * * * * * * * * * * * * * * * * * * * //

dimensions      [0 1 -1 0 0 0 0];

internalField   nonuniform List<vector> 
1000
(
(-1.2735e-06 0 0)
(-5.94325e-06 0 0)
(-1.50313e-05 0 0)
(-2.74418e-05 0 0)
(-4.23555e-05 0 0)
(-5.92862e-05 0 0)
(-7.78995e-05 0 0)
(-9.79274e-05 0 0)
(-0.000119146 0 0)
(-0.000141371 0 0)
(-0.000164446 0 0)
(-0.000188241 0 0)
(-0.000212644 0 0)
(-0.00023756 0 0)
(-0.000262906 0 0)
(-0.000288608 0 0)
(-0.000314601 0 0)
(-0.00034083 0 0)
(-0.000367242 0 0)
(-0.000393793 0 0)
(-0.000420441 0 0)
(-0.000447149 0 0)
(-0.000473884 0 0)
(-0.000500613 0 0)
(-0.00052731 0 0)
(-0.000553947 0 0)
(-0.000580503 0 0)
(-0.000606954 0 0)
(-0.000633281 0 0)
(-0.000659466 0 0)
(-0.000685491 0 0)
(-0.00071134 0 0)
(-0.000736999 0 0)
(-0.000762454 0 0)
(-0.000787693 0 0)
(-0.000812703 0 0)
(-0.000837475 0 0)
(-0.000861998 0 0)
(-0.000886262 0 0)
(-0.00091026 0 0)
(-0.000933984 0 0)
(-0.000957427 0 0)
(-0.000980581 0 0)
(-0.00100344 0 0)
(-0.001026 0 0)
(-0.00104826 0 0)
(-0.0010702 0 0)
(-0.00109184 0 0)
(-0.00111315 0 0)
(-0.00113415 0 0)
(-0.00115482 0 0)
(-0.00117517 0 0)
(-0.00119519 0 0)
(-0.00121488 0 0)
(-0.00123424 0 0)
(-0.00125327 0 0)
(-0.00127197 0 0)
(-0.00129033 0 0)
(-0.00130837 0 0)
(-0.00132607 0 0)
(-0.00134343 0 0)
(-0.00136047 0 0)
(-0.00137717 0 0)
(-0.00139355 0 0)
(-0.0014096 0 0)
(-0.00142532 0 0)
(-0.00144071 0 0)
(-0.00145579 0 0)
(-0.00147054 0 0)
(-0.00148497 0 0)
(-0.00149909 0 0)
(-0.00151289 0 0)
(-0.00152638 0 0)
(-0.00153957 0 0)
(-0.00155244 0 0)
(-0.00156502 0 0)
(-0.0015773 0 0)
(-0.00158928 0 0)
(-0.00160097 0 0)
(-0.00161237 0 0)
(-0.00162349 0 0)
(-0.00163433 0 0)
(-0.00164489 0 0)
(-0.00165517 0 0)
(-0.00166519 0 0)
(-0.00167494 0 0)
(-0.00168443 0 0)
(-0.00169366 0 0)
(-0.00170264 0 0)
(-0.00171137 0 0)
(-0.00171986 0 0)
(-0.00172811 0 0)
(-0.00173612 0 0)
(-0.0017439 0 0)
(-0.00175145 0 0)
(-0.00175878 0 0)
(-0.00176589 0 0)
(-0.00177279 0 0)
(-0.00177948 0 0)
(-0.00178596 0 0)
(-0.00179224 0 0)
(-0.00179833 0 0)
(-0.00180422 0 0)
(-0.00180992 0 0)
(-0.00181544 0 0)
(-0.00182078 0 0)
(-0.00182595 0 0)
(-0.00183094 0 0)
(-0.00183577 0 0)
(-0.00184043 0 0)
(-0.00184494 0 0)
(-0.00184929 0 0)
(-0.00185349 0 0)
(-0.00185754 0 0)
(-0.00186145 0 0)
(-0.00186522 0 0)
(-0.00186886 0 0)
(-0.00187236 0 0)
(-0.00187574 0 0)
(-0.00187899 0 0)
(-0.00188212 0 0)
(-0.00188514 0 0)
(-0.00188804 0 0)
(-0.00189083 0 0)
(-0.00189351 0 0)
(-0.00189609 0 0)
(-0.00189857 0 0)
(-0.00190095 0 0)
(-0.00190324 0 0)
(-0.00190544 0 0)
(-0.00190754 0 0)
(-0.00190957 0 0)
(-0.00191151 0 0)
(-0.00191337 0 0)
(-0.00191516 0 0)
(-0.00191687 0 0)
(-0.00191851 0 0)
(-0.00192008 0 0)
(-0.00192158 0 0)
(-0.00192301 0 0)
(-0.00192438 0 0)
(-0.00192568 0 0)
(-0.00192693 0 0)
(-0.00192813 0 0)
(-0.00192928 0 0)
(-0.00193037 0 0)
(-0.00193142 0 0)
(-0.00193243 0 0)
(-0.00193338 0 0)
(-0.00193429 0 0)
(-0.00193516 0 0)
(-0.00193599 0 0)
(-0.00193678 0 0)
(-0.00193753 0 0)
(-0.00193825 0 0)
(-0.00193893 0 0)
(-0.00193958 0 0)
(-0.0019402 0 0)
(-0.00194079 0 0)
(-0.00194135 0 0)
(-0.00194188 0 0)
(-0.00194238 0 0)
(-0.00194286 0 0)
(-0.00194332 0 0)
(-0.00194375 0 0)
(-0.00194416 0 0)
(-0.00194455 0 0)
(-0.00194492 0 0)
(-0.00194527 0 0)
(-0.0019456 0 0)
(-0.00194592 0 0)
(-0.00194622 0 0)
(-0.0019465 0 0)
(-0.00194677 0 0)
(-0.00194702 0 0)
(-0.00194726 0 0)
(-0.00194749 0 0)
(-0.0019477 0 0)
(-0.0019479 0 0)
(-0.00194809 0 0)
(-0.00194827 0 0)
(-0.00194844 0 0)
(-0.0019486 0 0)
(-0.00194876 0 0)
(-0.0019489 0 0)
(-0.00194903 0 0)
(-0.00194916 0 0)
(-0.00194928 0 0)
(-0.00194939 0 0)
(-0.0019495 0 0)
(-0.0019496 0 0)
(-0.00194969 0 0)
(-0.00194978 0 0)
(-0.00194987 0 0)
(-0.00194994 0 0)
(-0.00195002 0 0)
(-0.00195009 0 0)
(-0.00195015 0 0)
(-0.00195021 0 0)
(-0.00195027 0 0)
(-0.00195032 0 0)
(-0.00195037 0 0)
(-0.00195042 0 0)
(-0.00195046 0 0)
(-0.0019505 0 0)
(-0.00195054 0 0)
(-0.00195058 0 0)
(-0.00195061 0 0)
(-0.00195064 0 0)
(-0.00195067 0 0)
(-0.0019507 0 0)
(-0.00195072 0 0)
(-0.00195075 0 0)
(-0.00195077 0 0)
(-0.00195079 0 0)
(-0.00195081 0 0)
(-0.00195082 0 0)
(-0.00195084 0 0)
(-0.00195086 0 0)
(-0.00195087 0 0)
(-0.00195088 0 0)
(-0.00195089 0 0)
(-0.0019509 0 0)
(-0.00195091 0 0)
(-0.00195092 0 0)
(-0.00195093 0 0)
(-0.00195094 0 0)
(-0.00195094 0 0)
(-0.00195095 0 0)
(-0.00195096 0 0)
(-0.00195096 0 0)
(-0.00195097 0 0)
(-0.00195097 0 0)
(-0.00195097 0 0)
(-0.00195097 0 0)
(-0.00195098 0 0)
(-0.00195098 0 0)
(-0.00195098 0 0)
(-0.00195098 0 0)
(-0.00195098 0 0)
(-0.00195098 0 0)
(-0.00195098 0 0)
(-0.00195098 0 0)
(-0.00195099 0 0)
(-0.00195098 0 0)
(-0.00195098 0 0)
(-0.00195098 0 0)
(-0.00195098 0 0)
(-0.00195098 0 0)
(-0.00195098 0 0)
(-0.00195098 0 0)
(-0.00195097 0 0)
(-0.00195097 0 0)
(-0.00195097 0 0)
(-0.00195097 0 0)
(-0.00195096 0 0)
(-0.00195097 0 0)
(-0.00195096 0 0)
(-0.00195096 0 0)
(-0.00195095 0 0)
(-0.00195095 0 0)
(-0.00195095 0 0)
(-0.00195095 0 0)
(-0.00195094 0 0)
(-0.00195094 0 0)
(-0.00195094 0 0)
(-0.00195093 0 0)
(-0.00195093 0 0)
(-0.00195092 0 0)
(-0.00195092 0 0)
(-0.00195092 0 0)
(-0.00195092 0 0)
(-0.00195091 0 0)
(-0.00195091 0 0)
(-0.00195091 0 0)
(-0.0019509 0 0)
(-0.0019509 0 0)
(-0.00195089 0 0)
(-0.00195089 0 0)
(-0.00195089 0 0)
(-0.00195088 0 0)
(-0.00195088 0 0)
(-0.00195087 0 0)
(-0.00195087 0 0)
(-0.00195087 0 0)
(-0.00195086 0 0)
(-0.00195087 0 0)
(-0.00195085 0 0)
(-0.00195085 0 0)
(-0.00195085 0 0)
(-0.00195084 0 0)
(-0.00195085 0 0)
(-0.00195083 0 0)
(-0.00195084 0 0)
(-0.00195083 0 0)
(-0.00195082 0 0)
(-0.00195083 0 0)
(-0.00195082 0 0)
(-0.00195082 0 0)
(-0.00195082 0 0)
(-0.00195081 0 0)
(-0.00195081 0 0)
(-0.00195081 0 0)
(-0.0019508 0 0)
(-0.0019508 0 0)
(-0.0019508 0 0)
(-0.00195079 0 0)
(-0.00195079 0 0)
(-0.00195079 0 0)
(-0.00195078 0 0)
(-0.00195079 0 0)
(-0.00195077 0 0)
(-0.00195078 0 0)
(-0.00195077 0 0)
(-0.00195076 0 0)
(-0.00195077 0 0)
(-0.00195076 0 0)
(-0.00195076 0 0)
(-0.00195076 0 0)
(-0.00195075 0 0)
(-0.00195076 0 0)
(-0.00195075 0 0)
(-0.00195075 0 0)
(-0.00195075 0 0)
(-0.00195075 0 0)
(-0.00195074 0 0)
(-0.00195075 0 0)
(-0.00195074 0 0)
(-0.00195074 0 0)
(-0.00195073 0 0)
(-0.00195074 0 0)
(-0.00195073 0 0)
(-0.00195073 0 0)
(-0.00195073 0 0)
(-0.00195073 0 0)
(-0.00195073 0 0)
(-0.00195073 0 0)
(-0.00195073 0 0)
(-0.00195072 0 0)
(-0.00195073 0 0)
(-0.00195072 0 0)
(-0.00195073 0 0)
(-0.00195072 0 0)
(-0.00195072 0 0)
(-0.00195073 0 0)
(-0.00195072 0 0)
(-0.00195072 0 0)
(-0.00195072 0 0)
(-0.00195072 0 0)
(-0.00195072 0 0)
(-0.00195072 0 0)
(-0.00195072 0 0)
(-0.00195072 0 0)
(-0.00195072 0 0)
(-0.00195072 0 0)
(-0.00195072 0 0)
(-0.00195072 0 0)
(-0.00195072 0 0)
(-0.00195072 0 0)
(-0.00195072 0 0)
(-0.00195072 0 0)
(-0.00195072 0 0)
(-0.00195072 0 0)
(-0.00195073 0 0)
(-0.00195072 0 0)
(-0.00195073 0 0)
(-0.00195073 0 0)
(-0.00195073 0 0)
(-0.00195073 0 0)
(-0.00195073 0 0)
(-0.00195073 0 0)
(-0.00195073 0 0)
(-0.00195073 0 0)
(-0.00195074 0 0)
(-0.00195073 0 0)
(-0.00195074 0 0)
(-0.00195074 0 0)
(-0.00195074 0 0)
(-0.00195074 0 0)
(-0.00195074 0 0)
(-0.00195074 0 0)
(-0.00195074 0 0)
(-0.00195074 0 0)
(-0.00195075 0 0)
(-0.00195075 0 0)
(-0.00195075 0 0)
(-0.00195075 0 0)
(-0.00195075 0 0)
(-0.00195075 0 0)
(-0.00195075 0 0)
(-0.00195075 0 0)
(-0.00195076 0 0)
(-0.00195076 0 0)
(-0.00195076 0 0)
(-0.00195076 0 0)
(-0.00195076 0 0)
(-0.00195076 0 0)
(-0.00195076 0 0)
(-0.00195076 0 0)
(-0.00195077 0 0)
(-0.00195076 0 0)
(-0.00195077 0 0)
(-0.00195077 0 0)
(-0.00195077 0 0)
(-0.00195077 0 0)
(-0.00195077 0 0)
(-0.00195077 0 0)
(-0.00195077 0 0)
(-0.00195077 0 0)
(-0.00195077 0 0)
(-0.00195077 0 0)
(-0.00195077 0 0)
(-0.00195077 0 0)
(-0.00195078 0 0)
(-0.00195077 0 0)
(-0.00195078 0 0)
(-0.00195077 0 0)
(-0.00195078 0 0)
(-0.00195078 0 0)
(-0.00195078 0 0)
(-0.00195078 0 0)
(-0.00195078 0 0)
(-0.00195078 0 0)
(-0.00195078 0 0)
(-0.00195078 0 0)
(-0.00195078 0 0)
(-0.00195078 0 0)
(-0.00195078 0 0)
(-0.00195078 0 0)
(-0.00195078 0 0)
(-0.00195078 0 0)
(-0.00195078 0 0)
(-0.00195077 0 0)
(-0.00195078 0 0)
(-0.00195077 0 0)
(-0.00195077 0 0)
(-0.00195078 0 0)
(-0.00195077 0 0)
(-0.00195078 0 0)
(-0.00195077 0 0)
(-0.00195077 0 0)
(-0.00195077 0 0)
(-0.00195077 0 0)
(-0.00195077 0 0)
(-0.00195077 0 0)
(-0.00195077 0 0)
(-0.00195077 0 0)
(-0.00195077 0 0)
(-0.00195077 0 0)
(-0.00195077 0 0)
(-0.00195077 0 0)
(-0.00195076 0 0)
(-0.00195077 0 0)
(-0.00195076 0 0)
(-0.00195077 0 0)
(-0.00195076 0 0)
(-0.00195076 0 0)
(-0.00195076 0 0)
(-0.00195076 0 0)
(-0.00195076 0 0)
(-0.00195076 0 0)
(-0.00195076 0 0)
(-0.00195076 0 0)
(-0.00195076 0 0)
(-0.00195075 0 0)
(-0.00195076 0 0)
(-0.00195075 0 0)
(-0.00195076 0 0)
(-0.00195076 0 0)
(-0.00195075 0 0)
(-0.00195076 0 0)
(-0.00195075 0 0)
(-0.00195076 0 0)
(-0.00195075 0 0)
(-0.00195075 0 0)
(-0.00195075 0 0)
(-0.00195075 0 0)
(-0.00195076 0 0)
(-0.00195075 0 0)
(-0.00195076 0 0)
(-0.00195075 0 0)
(-0.00195075 0 0)
(-0.00195075 0 0)
(-0.00195075 0 0)
(-0.00195076 0 0)
(-0.00195075 0 0)
(-0.00195075 0 0)
(-0.00195075 0 0)
(-0.00195075 0 0)
(-0.00195075 0 0)
(-0.00195075 0 0)
(-0.00195075 0 0)
(-0.00195075 0 0)
(-0.00195075 0 0)
(-0.00195075 0 0)
(-0.00195075 0 0)
(-0.00195075 0 0)
(-0.00195075 0 0)
(-0.00195075 0 0)
(-0.00195075 0 0)
(-0.00195075 0 0)
(-0.00195075 0 0)
(-0.00195075 0 0)
(-0.00195075 0 0)
(-0.00195075 0 0)
(-0.00195075 0 0)
(-0.00195075 0 0)
(-0.00195075 0 0)
(-0.00195075 0 0)
(-0.00195076 0 0)
(-0.00195075 0 0)
(-0.00195075 0 0)
(-0.00195075 0 0)
(-0.00195075 0 0)
(-0.00195076 0 0)
(-0.00195075 0 0)
(-0.00195075 0 0)
(-0.00195075 0 0)
(-0.00195075 0 0)
(-0.00195075 0 0)
(-0.00195075 0 0)
(-0.00195076 0 0)
(-0.00195075 0 0)
(-0.00195075 0 0)
(-0.00195075 0 0)
(-0.00195075 0 0)
(-0.00195076 0 0)
(-0.00195075 0 0)
(-0.00195075 0 0)
(-0.00195075 0 0)
(-0.00195075 0 0)
(-0.00195075 0 0)
(-0.00195075 0 0)
(-0.00195075 0 0)
(-0.00195075 0 0)
(-0.00195075 0 0)
(-0.00195075 0 0)
(-0.00195075 0 0)
(-0.00195075 0 0)
(-0.00195075 0 0)
(-0.00195074 0 0)
(-0.00195075 0 0)
(-0.00195074 0 0)
(-0.00195075 0 0)
(-0.00195074 0 0)
(-0.00195074 0 0)
(-0.00195074 0 0)
(-0.00195074 0 0)
(-0.00195075 0 0)
(-0.00195074 0 0)
(-0.00195074 0 0)
(-0.00195074 0 0)
(-0.00195074 0 0)
(-0.00195074 0 0)
(-0.00195073 0 0)
(-0.00195074 0 0)
(-0.00195073 0 0)
(-0.00195074 0 0)
(-0.00195073 0 0)
(-0.00195073 0 0)
(-0.00195073 0 0)
(-0.00195073 0 0)
(-0.00195073 0 0)
(-0.00195072 0 0)
(-0.00195073 0 0)
(-0.00195072 0 0)
(-0.00195072 0 0)
(-0.00195072 0 0)
(-0.00195072 0 0)
(-0.00195072 0 0)
(-0.00195072 0 0)
(-0.00195072 0 0)
(-0.00195072 0 0)
(-0.00195071 0 0)
(-0.00195072 0 0)
(-0.00195071 0 0)
(-0.00195071 0 0)
(-0.00195071 0 0)
(-0.00195071 0 0)
(-0.00195071 0 0)
(-0.0019507 0 0)
(-0.00195071 0 0)
(-0.0019507 0 0)
(-0.00195071 0 0)
(-0.0019507 0 0)
(-0.00195071 0 0)
(-0.0019507 0 0)
(-0.0019507 0 0)
(-0.00195071 0 0)
(-0.0019507 0 0)
(-0.0019507 0 0)
(-0.0019507 0 0)
(-0.0019507 0 0)
(-0.0019507 0 0)
(-0.0019507 0 0)
(-0.0019507 0 0)
(-0.0019507 0 0)
(-0.0019507 0 0)
(-0.0019507 0 0)
(-0.0019507 0 0)
(-0.0019507 0 0)
(-0.0019507 0 0)
(-0.0019507 0 0)
(-0.0019507 0 0)
(-0.00195069 0 0)
(-0.0019507 0 0)
(-0.00195069 0 0)
(-0.0019507 0 0)
(-0.0019507 0 0)
(-0.0019507 0 0)
(-0.0019507 0 0)
(-0.0019507 0 0)
(-0.0019507 0 0)
(-0.0019507 0 0)
(-0.0019507 0 0)
(-0.0019507 0 0)
(-0.0019507 0 0)
(-0.0019507 0 0)
(-0.0019507 0 0)
(-0.0019507 0 0)
(-0.0019507 0 0)
(-0.0019507 0 0)
(-0.0019507 0 0)
(-0.0019507 0 0)
(-0.00195071 0 0)
(-0.00195071 0 0)
(-0.00195071 0 0)
(-0.00195071 0 0)
(-0.00195071 0 0)
(-0.00195071 0 0)
(-0.00195071 0 0)
(-0.00195071 0 0)
(-0.00195071 0 0)
(-0.00195071 0 0)
(-0.00195071 0 0)
(-0.00195071 0 0)
(-0.00195071 0 0)
(-0.00195071 0 0)
(-0.00195072 0 0)
(-0.00195071 0 0)
(-0.00195072 0 0)
(-0.00195072 0 0)
(-0.00195072 0 0)
(-0.00195072 0 0)
(-0.00195072 0 0)
(-0.00195072 0 0)
(-0.00195072 0 0)
(-0.00195072 0 0)
(-0.00195072 0 0)
(-0.00195072 0 0)
(-0.00195072 0 0)
(-0.00195072 0 0)
(-0.00195072 0 0)
(-0.00195072 0 0)
(-0.00195072 0 0)
(-0.00195072 0 0)
(-0.00195072 0 0)
(-0.00195072 0 0)
(-0.00195072 0 0)
(-0.00195072 0 0)
(-0.00195072 0 0)
(-0.00195072 0 0)
(-0.00195072 0 0)
(-0.00195072 0 0)
(-0.00195072 0 0)
(-0.00195072 0 0)
(-0.00195072 0 0)
(-0.00195072 0 0)
(-0.00195071 0 0)
(-0.00195072 0 0)
(-0.00195071 0 0)
(-0.00195072 0 0)
(-0.00195071 0 0)
(-0.00195071 0 0)
(-0.00195071 0 0)
(-0.00195071 0 0)
(-0.00195071 0 0)
(-0.0019507 0 0)
(-0.00195071 0 0)
(-0.0019507 0 0)
(-0.0019507 0 0)
(-0.0019507 0 0)
(-0.00195069 0 0)
(-0.0019507 0 0)
(-0.00195069 0 0)
(-0.0019507 0 0)
(-0.00195069 0 0)
(-0.00195069 0 0)
(-0.00195069 0 0)
(-0.00195068 0 0)
(-0.00195068 0 0)
(-0.00195067 0 0)
(-0.00195068 0 0)
(-0.00195067 0 0)
(-0.00195067 0 0)
(-0.00195067 0 0)
(-0.00195066 0 0)
(-0.00195067 0 0)
(-0.00195066 0 0)
(-0.00195066 0 0)
(-0.00195066 0 0)
(-0.00195065 0 0)
(-0.00195065 0 0)
(-0.00195065 0 0)
(-0.00195064 0 0)
(-0.00195064 0 0)
(-0.00195063 0 0)
(-0.00195064 0 0)
(-0.00195063 0 0)
(-0.00195063 0 0)
(-0.00195063 0 0)
(-0.00195062 0 0)
(-0.00195062 0 0)
(-0.00195062 0 0)
(-0.00195061 0 0)
(-0.00195061 0 0)
(-0.00195061 0 0)
(-0.0019506 0 0)
(-0.00195061 0 0)
(-0.0019506 0 0)
(-0.0019506 0 0)
(-0.0019506 0 0)
(-0.0019506 0 0)
(-0.0019506 0 0)
(-0.00195059 0 0)
(-0.0019506 0 0)
(-0.00195059 0 0)
(-0.00195059 0 0)
(-0.00195059 0 0)
(-0.0019506 0 0)
(-0.00195059 0 0)
(-0.00195059 0 0)
(-0.00195059 0 0)
(-0.00195059 0 0)
(-0.00195059 0 0)
(-0.00195059 0 0)
(-0.00195059 0 0)
(-0.00195059 0 0)
(-0.0019506 0 0)
(-0.00195059 0 0)
(-0.0019506 0 0)
(-0.0019506 0 0)
(-0.0019506 0 0)
(-0.0019506 0 0)
(-0.0019506 0 0)
(-0.0019506 0 0)
(-0.00195061 0 0)
(-0.00195061 0 0)
(-0.00195061 0 0)
(-0.00195061 0 0)
(-0.00195062 0 0)
(-0.00195062 0 0)
(-0.00195062 0 0)
(-0.00195062 0 0)
(-0.00195063 0 0)
(-0.00195063 0 0)
(-0.00195063 0 0)
(-0.00195064 0 0)
(-0.00195064 0 0)
(-0.00195064 0 0)
(-0.00195064 0 0)
(-0.00195065 0 0)
(-0.00195065 0 0)
(-0.00195065 0 0)
(-0.00195066 0 0)
(-0.00195066 0 0)
(-0.00195066 0 0)
(-0.00195067 0 0)
(-0.00195067 0 0)
(-0.00195067 0 0)
(-0.00195068 0 0)
(-0.00195068 0 0)
(-0.00195068 0 0)
(-0.00195068 0 0)
(-0.00195068 0 0)
(-0.00195069 0 0)
(-0.00195069 0 0)
(-0.00195069 0 0)
(-0.00195069 0 0)
(-0.0019507 0 0)
(-0.00195069 0 0)
(-0.0019507 0 0)
(-0.0019507 0 0)
(-0.0019507 0 0)
(-0.0019507 0 0)
(-0.0019507 0 0)
(-0.0019507 0 0)
(-0.0019507 0 0)
(-0.0019507 0 0)
(-0.0019507 0 0)
(-0.0019507 0 0)
(-0.0019507 0 0)
(-0.0019507 0 0)
(-0.0019507 0 0)
(-0.0019507 0 0)
(-0.00195069 0 0)
(-0.0019507 0 0)
(-0.00195069 0 0)
(-0.00195069 0 0)
(-0.00195069 0 0)
(-0.00195069 0 0)
(-0.00195069 0 0)
(-0.00195068 0 0)
(-0.00195068 0 0)
(-0.00195068 0 0)
(-0.00195067 0 0)
(-0.00195067 0 0)
(-0.00195067 0 0)
(-0.00195066 0 0)
(-0.00195066 0 0)
(-0.00195066 0 0)
(-0.00195066 0 0)
(-0.00195065 0 0)
(-0.00195065 0 0)
(-0.00195065 0 0)
(-0.00195064 0 0)
(-0.00195064 0 0)
(-0.00195063 0 0)
(-0.00195063 0 0)
(-0.00195063 0 0)
(-0.00195062 0 0)
(-0.00195062 0 0)
(-0.00195062 0 0)
(-0.00195061 0 0)
(-0.00195062 0 0)
(-0.00195061 0 0)
(-0.00195061 0 0)
(-0.00195061 0 0)
(-0.0019506 0 0)
(-0.00195061 0 0)
(-0.0019506 0 0)
(-0.0019506 0 0)
(-0.0019506 0 0)
(-0.0019506 0 0)
(-0.0019506 0 0)
(-0.0019506 0 0)
(-0.0019506 0 0)
(-0.0019506 0 0)
(-0.00195061 0 0)
(-0.00195061 0 0)
(-0.00195061 0 0)
(-0.00195062 0 0)
(-0.00195063 0 0)
(-0.00195063 0 0)
(-0.00195064 0 0)
(-0.00195065 0 0)
(-0.00195066 0 0)
(-0.00195067 0 0)
(-0.00195069 0 0)
(-0.00195071 0 0)
(-0.00195072 0 0)
(-0.00195075 0 0)
(-0.00195077 0 0)
(-0.0019508 0 0)
(-0.00195083 0 0)
(-0.00195086 0 0)
(-0.0019509 0 0)
(-0.00195095 0 0)
(-0.001951 0 0)
(-0.00195105 0 0)
(-0.00195112 0 0)
(-0.00195119 0 0)
(-0.00195126 0 0)
(-0.00195135 0 0)
(-0.00195145 0 0)
(-0.00195155 0 0)
(-0.00195167 0 0)
(-0.00195181 0 0)
(-0.00195195 0 0)
(-0.00195212 0 0)
(-0.0019523 0 0)
(-0.0019525 0 0)
(-0.00195272 0 0)
(-0.00195297 0 0)
(-0.00195324 0 0)
(-0.00195355 0 0)
(-0.00195388 0 0)
(-0.00195424 0 0)
(-0.00195465 0 0)
(-0.00195509 0 0)
(-0.00195558 0 0)
(-0.00195612 0 0)
(-0.00195671 0 0)
(-0.00195736 0 0)
(-0.00195808 0 0)
(-0.00195886 0 0)
(-0.00195971 0 0)
(-0.00196065 0 0)
(-0.00196167 0 0)
(-0.00196279 0 0)
(-0.00196401 0 0)
(-0.00196534 0 0)
(-0.00196679 0 0)
(-0.00196836 0 0)
(-0.00197008 0 0)
(-0.00197194 0 0)
(-0.00197396 0 0)
(-0.00197616 0 0)
(-0.00197854 0 0)
(-0.00198112 0 0)
(-0.0019839 0 0)
(-0.00198691 0 0)
(-0.00199017 0 0)
(-0.00199368 0 0)
(-0.00199746 0 0)
(-0.00200153 0 0)
(-0.00200592 0 0)
(-0.00201063 0 0)
(-0.00201568 0 0)
(-0.00202111 0 0)
(-0.00202693 0 0)
(-0.00203316 0 0)
(-0.00203982 0 0)
(-0.00204695 0 0)
(-0.00205455 0 0)
(-0.00206266 0 0)
(-0.00207131 0 0)
(-0.00208051 0 0)
(-0.0020903 0 0)
(-0.0021007 0 0)
(-0.00211174 0 0)
(-0.00212344 0 0)
(-0.00213584 0 0)
(-0.00214896 0 0)
(-0.00216283 0 0)
(-0.00217748 0 0)
(-0.00219294 0 0)
(-0.00220922 0 0)
(-0.00222637 0 0)
(-0.00224441 0 0)
(-0.00226335 0 0)
(-0.00228323 0 0)
(-0.00230408 0 0)
(-0.0023259 0 0)
(-0.00234873 0 0)
(-0.00237259 0 0)
(-0.00239749 0 0)
(-0.00242345 0 0)
(-0.00245048 0 0)
(-0.0024786 0 0)
(-0.00250781 0 0)
(-0.00253812 0 0)
(-0.00256954 0 0)
(-0.00260207 0 0)
(-0.0026357 0 0)
(-0.00267042 0 0)
(-0.00270623 0 0)
(-0.00274312 0 0)
(-0.00278105 0 0)
(-0.00282001 0 0)
(-0.00285997 0 0)
(-0.0029009 0 0)
(-0.00294275 0 0)
(-0.00298547 0 0)
(-0.00302903 0 0)
(-0.00307335 0 0)
(-0.00311837 0 0)
(-0.00316402 0 0)
(-0.00321023 0 0)
(-0.00325689 0 0)
(-0.00330392 0 0)
(-0.00335121 0 0)
(-0.00339864 0 0)
(-0.0034461 0 0)
(-0.00349345 0 0)
(-0.00354054 0 0)
(-0.00358722 0 0)
(-0.00363333 0 0)
(-0.00367868 0 0)
(-0.00372309 0 0)
(-0.00376635 0 0)
(-0.00380825 0 0)
(-0.00384855 0 0)
(-0.003887 0 0)
(-0.00392342 0 0)
(-0.0039576 0 0)
(-0.00398897 0 0)
(-0.00401691 0 0)
(-0.00404112 0 0)
(-0.00406143 0 0)
(-0.00407756 0 0)
(-0.00408921 0 0)
(-0.0040955 0 0)
(-0.00409607 0 0)
(-0.00409021 0 0)
(-0.00407711 0 0)
(-0.00405627 0 0)
(-0.00402665 0 0)
(-0.0039875 0 0)
(-0.00393781 0 0)
(-0.00387658 0 0)
(-0.00380265 0 0)
(-0.00371483 0 0)
(-0.0036118 0 0)
(-0.00349256 0 0)
(-0.00335649 0 0)
(-0.0032023 0 0)
(-0.00302034 0 0)
(-0.0027907 0 0)
(-0.00255414 0 0)
)
;

boundaryField
{
    fixedWall
    {
        type            fixedValue;
        value           uniform (0 0 0);
    }
    outlet
    {
        type            pressureInletOutletVelocity;
        value           uniform (-0.00255414 0 0);
    }
    defaultFaces
    {
        type            empty;
    }
}


// ************************************************************************* //
