/*--------------------------------*- C++ -*----------------------------------*\
| =========                 |                                                 |
| \\      /  F ield         | OpenFOAM: The Open Source CFD Toolbox           |
|  \\    /   O peration     | Version:  2406                                  |
|   \\  /    A nd           | Website:  www.openfoam.com                      |
|    \\/     M anipulation  |                                                 |
\*---------------------------------------------------------------------------*/
FoamFile
{
    version     2.0;
    format      ascii;
    arch        "LSB;label=32;scalar=64";
    class       volScalarField;
    location    "1.6";
    object      CO2;
}
// * * * * * * * * * * * * * * * * * * * * * * * * * * * * * * * * * * * * * //

dimensions      [0 0 0 0 0 0 0];

internalField   nonuniform List<scalar> 
1000
(
0.0709257
0.0709257
0.0709257
0.0709257
0.0709257
0.0709257
0.0709257
0.0709257
0.0709257
0.0709257
0.0709257
0.0709257
0.0709257
0.0709257
0.0709257
0.0709257
0.0709257
0.0709257
0.0709257
0.0709257
0.0709257
0.0709258
0.0709258
0.0709258
0.0709258
0.0709258
0.0709258
0.0709258
0.0709258
0.0709258
0.0709258
0.0709258
0.0709259
0.0709259
0.0709259
0.0709259
0.0709259
0.0709259
0.0709259
0.0709259
0.0709259
0.0709259
0.0709259
0.0709259
0.0709259
0.0709259
0.0709258
0.0709258
0.0709258
0.0709258
0.0709258
0.0709258
0.0709258
0.0709258
0.0709258
0.0709258
0.0709258
0.0709258
0.0709258
0.0709258
0.0709258
0.0709257
0.0709257
0.0709257
0.0709257
0.0709257
0.0709257
0.0709257
0.0709257
0.0709257
0.0709257
0.0709257
0.0709257
0.0709257
0.0709256
0.0709256
0.0709256
0.0709256
0.0709256
0.0709256
0.0709256
0.0709256
0.0709256
0.0709256
0.0709256
0.0709256
0.0709255
0.0709255
0.0709255
0.0709255
0.0709255
0.0709255
0.0709255
0.0709255
0.0709255
0.0709255
0.0709254
0.0709254
0.0709254
0.0709254
0.0709254
0.0709254
0.0709254
0.0709254
0.0709254
0.0709254
0.0709253
0.0709253
0.0709253
0.0709253
0.0709253
0.0709253
0.0709253
0.0709253
0.0709252
0.0709252
0.0709252
0.0709252
0.0709252
0.0709252
0.0709252
0.0709251
0.0709251
0.0709251
0.0709251
0.0709251
0.0709251
0.070925
0.070925
0.070925
0.070925
0.070925
0.070925
0.0709249
0.0709249
0.0709249
0.0709249
0.0709249
0.0709248
0.0709248
0.0709248
0.0709248
0.0709248
0.0709247
0.0709247
0.0709247
0.0709247
0.0709247
0.0709246
0.0709246
0.0709246
0.0709246
0.0709245
0.0709245
0.0709245
0.0709244
0.0709244
0.0709244
0.0709244
0.0709243
0.0709243
0.0709243
0.0709242
0.0709242
0.0709241
0.0709241
0.0709241
0.070924
0.070924
0.070924
0.0709239
0.0709239
0.0709238
0.0709238
0.0709237
0.0709237
0.0709236
0.0709236
0.0709235
0.0709235
0.0709234
0.0709234
0.0709233
0.0709232
0.0709232
0.0709231
0.070923
0.070923
0.0709229
0.0709228
0.0709227
0.0709226
0.0709225
0.0709225
0.0709224
0.0709223
0.0709222
0.070922
0.0709219
0.0709218
0.0709217
0.0709216
0.0709214
0.0709213
0.0709211
0.0709209
0.0709208
0.0709206
0.0709204
0.0709202
0.07092
0.0709197
0.0709195
0.0709192
0.0709189
0.0709186
0.0709183
0.0709179
0.0709175
0.0709171
0.0709166
0.0709161
0.0709156
0.070915
0.0709143
0.0709135
0.0709127
0.0709117
0.0709106
0.0709094
0.0709079
0.0709062
0.0709043
0.0709018
0.0708989
0.0708951
0.0708904
0.0708842
0.0708758
0.0708638
0.0708457
0.0708157
0.0707602
0.0706408
0.070334
0.069405
0.0662022
0.0528272
0.0265762
0.0131871
0.0065462
0.00325163
0.00161546
0.000802543
0.000398644
0.00019799
9.83202e-05
4.88193e-05
2.4238e-05
1.20328e-05
5.97324e-06
2.9651e-06
1.47185e-06
7.30619e-07
3.6269e-07
1.8006e-07
8.94048e-08
4.4402e-08
2.20706e-08
1.09744e-08
5.47601e-09
2.75289e-09
1.38326e-09
7.42668e-10
4.32968e-10
3.08834e-10
1.92596e-10
1.29769e-10
1.04572e-10
8.76642e-11
7.65976e-11
7.22382e-11
6.94158e-11
6.78697e-11
6.6254e-11
6.562e-11
6.52169e-11
6.49941e-11
6.48813e-11
6.4805e-11
6.47709e-11
6.47503e-11
6.47329e-11
6.47273e-11
6.47243e-11
6.47217e-11
6.47206e-11
6.47198e-11
6.47194e-11
6.47193e-11
6.47192e-11
6.47192e-11
6.47192e-11
6.47192e-11
6.47193e-11
6.47193e-11
6.47194e-11
6.47195e-11
6.47195e-11
6.47196e-11
6.47197e-11
6.47198e-11
6.47198e-11
6.47199e-11
6.472e-11
6.472e-11
6.47201e-11
6.47202e-11
6.47202e-11
6.47203e-11
6.47204e-11
6.47205e-11
6.47205e-11
6.47206e-11
6.47207e-11
6.47208e-11
6.47209e-11
6.47209e-11
6.4721e-11
6.47211e-11
6.47211e-11
6.47212e-11
6.47213e-11
6.47213e-11
6.47214e-11
6.47215e-11
6.47216e-11
6.47216e-11
6.47217e-11
6.47218e-11
6.47219e-11
6.47219e-11
6.4722e-11
6.47221e-11
6.47221e-11
6.47222e-11
6.47223e-11
6.47223e-11
6.47224e-11
6.47225e-11
6.47226e-11
6.47226e-11
6.47227e-11
6.47228e-11
6.47228e-11
6.47229e-11
6.4723e-11
6.4723e-11
6.47231e-11
6.47232e-11
6.47233e-11
6.47233e-11
6.47234e-11
6.47235e-11
6.47235e-11
6.47236e-11
6.47237e-11
6.47237e-11
6.47238e-11
6.47239e-11
6.4724e-11
6.4724e-11
6.47241e-11
6.47242e-11
6.47242e-11
6.47243e-11
6.47244e-11
6.47245e-11
6.47245e-11
6.47246e-11
6.47247e-11
6.47247e-11
6.47248e-11
6.47248e-11
6.47249e-11
6.4725e-11
6.47251e-11
6.47252e-11
6.47252e-11
6.47253e-11
6.47254e-11
6.47254e-11
6.47255e-11
6.47256e-11
6.47256e-11
6.47257e-11
6.47258e-11
6.47258e-11
6.47259e-11
6.4726e-11
6.4726e-11
6.47261e-11
6.47262e-11
6.47263e-11
6.47263e-11
6.47264e-11
6.47265e-11
6.47266e-11
6.47266e-11
6.47267e-11
6.47268e-11
6.47268e-11
6.47269e-11
6.4727e-11
6.4727e-11
6.47271e-11
6.47272e-11
6.47273e-11
6.47273e-11
6.47274e-11
6.47275e-11
6.47275e-11
6.47276e-11
6.47277e-11
6.47277e-11
6.47278e-11
6.47279e-11
6.47279e-11
6.4728e-11
6.47281e-11
6.47282e-11
6.47282e-11
6.47283e-11
6.47284e-11
6.47284e-11
6.47285e-11
6.47286e-11
6.47287e-11
6.47287e-11
6.47288e-11
6.47289e-11
6.47289e-11
6.4729e-11
6.47291e-11
6.47291e-11
6.47292e-11
6.47293e-11
6.47294e-11
6.47294e-11
6.47295e-11
6.47296e-11
6.47297e-11
6.47297e-11
6.47298e-11
6.47299e-11
6.47299e-11
6.473e-11
6.47301e-11
6.47302e-11
6.47302e-11
6.47303e-11
6.47304e-11
6.47305e-11
6.47305e-11
6.47306e-11
6.47307e-11
6.47307e-11
6.47308e-11
6.47309e-11
6.4731e-11
6.4731e-11
6.47311e-11
6.47312e-11
6.47313e-11
6.47314e-11
6.47314e-11
6.47315e-11
6.47316e-11
6.47317e-11
6.47317e-11
6.47318e-11
6.47319e-11
6.4732e-11
6.4732e-11
6.47321e-11
6.47322e-11
6.47322e-11
6.47323e-11
6.47324e-11
6.47325e-11
6.47325e-11
6.47326e-11
6.47327e-11
6.47328e-11
6.47329e-11
6.47329e-11
6.4733e-11
6.47331e-11
6.47332e-11
6.47333e-11
6.47333e-11
6.47334e-11
6.47335e-11
6.47336e-11
6.47336e-11
6.47337e-11
6.47338e-11
6.47339e-11
6.47339e-11
6.4734e-11
6.47341e-11
6.47342e-11
6.47342e-11
6.47343e-11
6.47344e-11
6.47345e-11
6.47346e-11
6.47346e-11
6.47347e-11
6.47348e-11
6.47348e-11
6.4735e-11
6.4735e-11
6.47351e-11
6.47352e-11
6.47353e-11
6.47353e-11
6.47354e-11
6.47355e-11
6.47356e-11
6.47357e-11
6.47357e-11
6.47358e-11
6.47359e-11
6.4736e-11
6.47361e-11
6.47361e-11
6.47362e-11
6.47363e-11
6.47364e-11
6.47365e-11
6.47366e-11
6.47366e-11
6.47367e-11
6.47368e-11
6.47369e-11
6.4737e-11
6.47371e-11
6.47371e-11
6.47372e-11
6.47373e-11
6.47374e-11
6.47374e-11
6.47375e-11
6.47376e-11
6.47377e-11
6.47378e-11
6.47379e-11
6.47379e-11
6.4738e-11
6.47381e-11
6.47382e-11
6.47383e-11
6.47384e-11
6.47384e-11
6.47385e-11
6.47386e-11
6.47387e-11
6.47388e-11
6.47388e-11
6.47389e-11
6.4739e-11
6.47391e-11
6.47392e-11
6.47393e-11
6.47394e-11
6.47394e-11
6.47395e-11
6.47396e-11
6.47397e-11
6.47398e-11
6.47399e-11
6.47399e-11
6.474e-11
6.47401e-11
6.47402e-11
6.47403e-11
6.47404e-11
6.47405e-11
6.47405e-11
6.47406e-11
6.47407e-11
6.47408e-11
6.47409e-11
6.47409e-11
6.4741e-11
6.47411e-11
6.47412e-11
6.47413e-11
6.47414e-11
6.47415e-11
6.47415e-11
6.47416e-11
6.47417e-11
6.47418e-11
6.47419e-11
6.4742e-11
6.4742e-11
6.47422e-11
6.47422e-11
6.47423e-11
6.47424e-11
6.47425e-11
6.47426e-11
6.47427e-11
6.47428e-11
6.47428e-11
6.47429e-11
6.4743e-11
6.47431e-11
6.47432e-11
6.47432e-11
6.47433e-11
6.47434e-11
6.47435e-11
6.47436e-11
6.47437e-11
6.47438e-11
6.47439e-11
6.47439e-11
6.47441e-11
6.47441e-11
6.47442e-11
6.47443e-11
6.47444e-11
6.47445e-11
6.47445e-11
6.47447e-11
6.47447e-11
6.47448e-11
6.47449e-11
6.4745e-11
6.47451e-11
6.47452e-11
6.47452e-11
6.47453e-11
6.47454e-11
6.47455e-11
6.47456e-11
6.47457e-11
6.47458e-11
6.47459e-11
6.4746e-11
6.4746e-11
6.47462e-11
6.47462e-11
6.47463e-11
6.47464e-11
6.47465e-11
6.47466e-11
6.47467e-11
6.47467e-11
6.47468e-11
6.47469e-11
6.4747e-11
6.47471e-11
6.47472e-11
6.47473e-11
6.47473e-11
6.47475e-11
6.47476e-11
6.47476e-11
6.47477e-11
6.47478e-11
6.47479e-11
6.4748e-11
6.47481e-11
6.47482e-11
6.47483e-11
6.47483e-11
6.47484e-11
6.47485e-11
6.47486e-11
6.47487e-11
6.47488e-11
6.47489e-11
6.47489e-11
6.4749e-11
6.47491e-11
6.47492e-11
6.47493e-11
6.47494e-11
6.47495e-11
6.47496e-11
6.47497e-11
6.47497e-11
6.47499e-11
6.47499e-11
6.475e-11
6.47501e-11
6.47502e-11
6.47503e-11
6.47504e-11
6.47505e-11
6.47506e-11
6.47507e-11
6.47507e-11
6.47509e-11
6.47509e-11
6.4751e-11
6.47511e-11
6.47512e-11
6.47513e-11
6.47514e-11
6.47514e-11
6.47516e-11
6.47516e-11
6.47517e-11
6.47518e-11
6.47519e-11
6.4752e-11
6.47521e-11
6.47522e-11
6.47523e-11
6.47524e-11
6.47525e-11
6.47526e-11
6.47527e-11
6.47528e-11
6.47529e-11
6.47529e-11
6.4753e-11
6.47531e-11
6.47532e-11
6.47533e-11
6.47534e-11
6.47534e-11
6.47536e-11
6.47536e-11
6.47538e-11
6.47538e-11
6.47539e-11
6.4754e-11
6.47541e-11
6.47542e-11
6.47543e-11
6.47544e-11
6.47545e-11
6.47546e-11
6.47547e-11
6.47548e-11
6.47549e-11
6.4755e-11
6.4755e-11
6.47551e-11
6.47552e-11
6.47553e-11
6.47554e-11
6.47555e-11
6.47556e-11
6.47557e-11
6.47557e-11
6.47558e-11
6.47559e-11
6.4756e-11
6.47561e-11
6.47562e-11
6.47563e-11
6.47564e-11
6.47565e-11
6.47566e-11
6.47567e-11
6.47568e-11
6.47568e-11
6.4757e-11
6.4757e-11
6.47571e-11
6.47572e-11
6.47573e-11
6.47574e-11
6.47575e-11
6.47576e-11
6.47577e-11
6.47578e-11
6.47579e-11
6.4758e-11
6.47581e-11
6.47582e-11
6.47583e-11
6.47584e-11
6.47585e-11
6.47585e-11
6.47586e-11
6.47587e-11
6.47588e-11
6.47589e-11
6.47591e-11
6.47592e-11
6.47592e-11
6.47593e-11
6.47594e-11
6.47595e-11
6.47596e-11
6.47597e-11
6.47598e-11
6.47599e-11
6.476e-11
6.47601e-11
6.47601e-11
6.47603e-11
6.47603e-11
6.47604e-11
6.47606e-11
6.47607e-11
6.47607e-11
6.47608e-11
6.47609e-11
6.4761e-11
6.47611e-11
6.47612e-11
6.47613e-11
6.47614e-11
6.47615e-11
6.47616e-11
6.47617e-11
6.47618e-11
6.47619e-11
6.4762e-11
6.47621e-11
6.47622e-11
6.47623e-11
6.47624e-11
6.47625e-11
6.47626e-11
6.47626e-11
6.47627e-11
6.47628e-11
6.47629e-11
6.47631e-11
6.47631e-11
6.47632e-11
6.47633e-11
6.47634e-11
6.47635e-11
6.47636e-11
6.47637e-11
6.47638e-11
6.47639e-11
6.4764e-11
6.47641e-11
6.47642e-11
6.47643e-11
6.47644e-11
6.47645e-11
6.47646e-11
6.47647e-11
6.47648e-11
6.47649e-11
6.4765e-11
6.47651e-11
6.47652e-11
6.47653e-11
6.47654e-11
6.47655e-11
6.47656e-11
6.47657e-11
6.47658e-11
6.47659e-11
6.4766e-11
6.4766e-11
6.47662e-11
6.47663e-11
6.47663e-11
6.47664e-11
6.47666e-11
6.47667e-11
6.47668e-11
6.47669e-11
6.4767e-11
6.47671e-11
6.47672e-11
6.47672e-11
6.47674e-11
6.47675e-11
6.47676e-11
6.47677e-11
6.47678e-11
6.47678e-11
6.4768e-11
6.4768e-11
6.47682e-11
6.47683e-11
6.47684e-11
6.47685e-11
6.47686e-11
6.47686e-11
6.47687e-11
6.47689e-11
6.4769e-11
6.4769e-11
6.47692e-11
6.47693e-11
6.47694e-11
6.47694e-11
6.47696e-11
6.47696e-11
6.47698e-11
6.47699e-11
6.47699e-11
6.47701e-11
6.47702e-11
6.47703e-11
6.47704e-11
6.47705e-11
6.47706e-11
6.47707e-11
6.47708e-11
6.47709e-11
6.4771e-11
6.47711e-11
6.47712e-11
6.47713e-11
6.47714e-11
6.47715e-11
6.47716e-11
6.47717e-11
6.47718e-11
6.47719e-11
6.47721e-11
6.47721e-11
6.47722e-11
6.47723e-11
6.47724e-11
6.47725e-11
6.47726e-11
6.47727e-11
6.47729e-11
6.4773e-11
6.4773e-11
6.47732e-11
6.47733e-11
6.47734e-11
6.47735e-11
6.47736e-11
6.47737e-11
6.47738e-11
6.47739e-11
6.4774e-11
6.47741e-11
6.47742e-11
6.47743e-11
6.47744e-11
6.47745e-11
6.47746e-11
6.47747e-11
6.47748e-11
6.47749e-11
6.4775e-11
6.47751e-11
6.47752e-11
6.47753e-11
6.47754e-11
6.47756e-11
6.47756e-11
6.47758e-11
6.47758e-11
6.4776e-11
6.47761e-11
6.47762e-11
6.47763e-11
6.47764e-11
6.47765e-11
6.47766e-11
6.47767e-11
6.47768e-11
6.47769e-11
6.4777e-11
6.47771e-11
6.47772e-11
6.47773e-11
6.47775e-11
6.47776e-11
6.47776e-11
6.47778e-11
6.47779e-11
6.4778e-11
6.47781e-11
6.47782e-11
6.47783e-11
6.47784e-11
6.47786e-11
6.47786e-11
6.47787e-11
6.47789e-11
6.4779e-11
6.47791e-11
6.47792e-11
6.47793e-11
6.47794e-11
6.47795e-11
)
;

boundaryField
{
    fixedWall
    {
        type            zeroGradient;
    }
    outlet
    {
        type            inletOutlet;
        inletValue      uniform 0;
        value           uniform 6.47795e-11;
    }
    defaultFaces
    {
        type            empty;
    }
}


// ************************************************************************* //
