/*--------------------------------*- C++ -*----------------------------------*\
| =========                 |                                                 |
| \\      /  F ield         | OpenFOAM: The Open Source CFD Toolbox           |
|  \\    /   O peration     | Version:  2406                                  |
|   \\  /    A nd           | Website:  www.openfoam.com                      |
|    \\/     M anipulation  |                                                 |
\*---------------------------------------------------------------------------*/
FoamFile
{
    version     2.0;
    format      ascii;
    arch        "LSB;label=32;scalar=64";
    class       volScalarField;
    location    "1.6";
    object      Qdot;
}
// * * * * * * * * * * * * * * * * * * * * * * * * * * * * * * * * * * * * * //

dimensions      [1 -1 -3 0 0 0 0];

internalField   nonuniform List<scalar> 
1000
(
9.31585e-08
1.2155e-07
1.09512e-06
1.60614e-05
0.000123074
0.000593647
0.00207454
0.00574917
0.0134585
0.0275531
0.0507263
0.0857042
0.134921
0.20023
0.282692
0.382472
0.498843
0.630281
0.774632
0.929316
1.09154
1.25849
1.42751
1.59622
1.76262
1.92506
2.08234
2.23362
2.3784
2.51647
2.64787
2.77279
2.89157
3.00462
3.11241
3.21543
3.31413
3.40831
3.4994
3.5882
3.67431
3.75811
3.83989
3.91993
3.99844
4.07561
4.15162
4.22662
4.30073
4.37407
4.44675
4.51887
4.59051
4.66176
4.7327
4.80339
4.87393
4.94436
5.01438
5.08389
5.15469
5.22566
5.29683
5.36828
5.44007
5.51228
5.58498
5.65824
5.73214
5.80673
5.88209
5.95829
6.03538
6.11343
6.19252
6.2727
6.35403
6.43659
6.52043
6.60562
6.69222
6.7803
6.86992
6.96115
7.05405
7.14868
7.24512
7.34343
7.44367
7.54592
7.65025
7.75671
7.86539
7.97636
8.08969
8.20545
8.32373
8.44459
8.56813
8.69441
8.82352
8.95556
9.09059
9.22872
9.37004
9.51464
9.66261
9.81405
9.96907
10.1278
10.2903
10.4567
10.6271
10.8016
10.9804
11.1635
11.3512
11.5435
11.7406
11.9425
12.1496
12.3619
12.5796
12.8028
13.0318
13.2667
13.5077
13.755
14.0079
14.2646
14.5324
14.8077
15.0905
15.3812
15.6802
15.9878
16.3043
16.6301
16.9656
17.3112
17.6674
18.0346
18.4134
18.8042
19.2077
19.6243
20.0546
20.4994
20.9593
21.4349
21.9271
22.4366
22.9642
23.5108
24.0773
24.6645
25.2674
25.8896
26.5456
27.2268
27.9343
28.6694
29.4335
30.228
31.0545
31.9146
32.8101
33.7427
34.7145
35.7275
36.7841
37.8867
39.0378
40.2404
41.4976
42.8126
44.1887
45.6282
47.1126
48.6896
50.3505
52.0988
53.9391
55.8772
57.9199
60.0749
62.3508
64.7569
67.3032
70.001
72.8625
75.9013
79.1328
82.5731
86.2198
90.0759
94.2612
98.7443
103.553
108.72
114.281
120.278
126.756
133.768
141.372
149.633
158.626
168.435
179.159
190.91
203.818
218.037
233.747
251.163
270.542
292.19
316.477
343.85
374.848
410.129
450.499
496.954
550.737
613.429
687.077
774.24
877.131
1001.39
1153.02
1340.21
1574.73
1873.09
2257.99
2777.31
3488.95
4496.09
5972
8221.71
11823.4
17991.2
29585.1
54076.6
112584
270694
768307
2.53513e+06
9.56097e+06
2.94477e+07
468590
1719.5
10.4223
0.226314
0.0185327
0.00414757
0.00177252
0.00110912
0.000860002
0.000749997
0.000696977
0.000670188
0.000656315
0.000649149
0.000645308
0.000643296
0.000642117
0.000641561
0.000641229
0.000641193
0.00064103
0.000641052
0.000640957
0.000640945
0.000640939
0.000640938
0.000640938
0.000641008
0.00064094
0.000641011
0.000641013
0.000641015
0.000640947
0.000640949
0.00064102
0.000640952
0.000640955
0.000641027
0.000640959
0.000640961
0.000640963
0.000640965
0.000640967
0.00064097
0.000641043
0.000640974
0.000641046
0.000640978
0.00064098
0.000640983
0.000640985
0.000640987
0.000640989
0.00064099
0.000640993
0.000641065
0.000641067
0.000640999
0.000641071
0.000641073
0.000641005
0.000641007
0.000641079
0.000641082
0.000641084
0.000641086
0.000641018
0.000641089
0.000641091
0.000641024
0.000641095
0.000641028
0.0006411
0.000641032
0.000641034
0.000641037
0.000641109
0.000641041
0.000641113
0.000641044
0.000641047
0.000641119
0.000641121
0.000641053
0.000641055
0.000641057
0.000641059
0.000641131
0.000641063
0.000641065
0.000641067
0.000641069
0.000641142
0.000641074
0.000641075
0.000641148
0.00064108
0.000641082
0.000641084
0.000641086
0.000641088
0.00064116
0.000641092
0.000641094
0.000641096
0.000641098
0.00064117
0.000641102
0.000641104
0.000641176
0.000641178
0.00064111
0.000641183
0.000641115
0.000641117
0.000641189
0.000641121
0.000641123
0.000641125
0.000641127
0.000641199
0.000641131
0.000641132
0.000641205
0.000641137
0.000641139
0.000641141
0.000641143
0.000641215
0.000641147
0.000641219
0.000641151
0.000641153
0.000641155
0.000641157
0.000641159
0.000641161
0.000641163
0.000641165
0.000641168
0.00064117
0.000641171
0.000641173
0.000641175
0.000641177
0.00064118
0.000641182
0.000641184
0.000641186
0.000641188
0.000641189
0.000641192
0.000641193
0.000641265
0.000641198
0.0006412
0.000641201
0.000641203
0.000641206
0.000641209
0.00064121
0.000641212
0.000641284
0.000641216
0.000641218
0.00064122
0.000641292
0.000641224
0.000641226
0.000641228
0.00064123
0.000641232
0.000641234
0.000641236
0.000641238
0.000641311
0.000641312
0.000641244
0.000641246
0.000641318
0.00064132
0.000641252
0.000641325
0.000641256
0.000641328
0.00064126
0.000641262
0.000641334
0.000641266
0.000641268
0.00064134
0.000641272
0.000641275
0.000641277
0.000641349
0.00064128
0.000641282
0.000641284
0.000641356
0.000641359
0.000641291
0.000641222
0.000641225
0.000641297
0.000641299
0.000641231
0.000641303
0.000641235
0.000641307
0.000641239
0.000641311
0.000641313
0.000641246
0.000641248
0.00064132
0.000641251
0.000641323
0.000641255
0.000641327
0.000641259
0.000641261
0.000641263
0.000641336
0.000641268
0.00064127
0.000641273
0.000641274
0.000641346
0.000641278
0.00064128
0.000641283
0.000641354
0.000641286
0.000641289
0.00064136
0.000641293
0.000641364
0.000641296
0.000641298
0.000641301
0.000641303
0.000641374
0.000641376
0.000641309
0.000641311
0.000641313
0.000641315
0.000641387
0.000641319
0.000641322
0.000641323
0.000641325
0.000641398
0.000641329
0.000641332
0.000641334
0.000641335
0.000641338
0.00064141
0.000641342
0.000641344
0.000641416
0.000641348
0.00064142
0.000641352
0.000641424
0.000641357
0.000641358
0.00064143
0.000641432
0.000641434
0.000641436
0.000641368
0.000641441
0.000641444
0.000641375
0.000641377
0.000641449
0.000641381
0.000641454
0.000641386
0.000641458
0.00064139
0.000641392
0.000641464
0.000641466
0.000641468
0.0006414
0.000641472
0.000641474
0.000641407
0.000641478
0.000641411
0.000641413
0.000641485
0.000641487
0.000641489
0.000641491
0.000641493
0.000641495
0.000641427
0.00064143
0.000641502
0.000641434
0.000641436
0.000641438
0.00064144
0.000641442
0.000641514
0.000641447
0.000641449
0.000641451
0.000641453
0.000641525
0.000641527
0.000641529
0.000641461
0.000641533
0.000641466
0.000641538
0.00064154
0.000641472
0.000641474
0.000641546
0.000641548
0.00064148
0.000641553
0.000641485
0.000641557
0.000641489
0.00064156
0.000641493
0.000641495
0.000641568
0.000641499
0.000641501
0.000641574
0.000641505
0.000641507
0.00064158
0.000641512
0.000641584
0.000641586
0.000641518
0.00064152
0.000641523
0.000641525
0.000641597
0.000641599
0.000641531
0.000641534
0.000641536
0.000641537
0.00064161
0.000641542
0.000641543
0.000641546
0.000641548
0.00064155
0.000641622
0.000641555
0.000641556
0.000641559
0.000641631
0.000641563
0.000641635
0.000641638
0.00064157
0.000641572
0.000641573
0.000641646
0.000641648
0.00064158
0.000641652
0.000641654
0.000641587
0.000641659
0.000641661
0.000641593
0.000641595
0.000641598
0.0006416
0.000641672
0.000641604
0.000641606
0.000641608
0.000641611
0.000641682
0.000641614
0.000641687
0.000641619
0.000641691
0.000641623
0.000641695
0.000641627
0.000641629
0.000641701
0.000641634
0.000641706
0.000641709
0.00064171
0.000641712
0.000641645
0.000641647
0.000641649
0.000641721
0.000641653
0.000641725
0.000641657
0.00064166
0.000641661
0.000641734
0.000641736
0.000641668
0.000641671
0.000641672
0.000641674
0.000641677
0.000641679
0.000641681
0.000641683
0.000641756
0.000641688
0.00064169
0.000641762
0.000641764
0.000641696
0.000641699
0.000641701
0.000641773
0.000641775
0.000641777
0.000641709
0.000641711
0.000641713
0.000641716
0.000641788
0.000641719
0.000641792
0.000641724
0.000641796
0.000641728
0.00064173
0.000641803
0.000641735
0.000641737
0.000641739
0.000641741
0.000641743
0.000641815
0.000641817
0.00064175
0.000641822
0.000641754
0.000641756
0.000641829
0.000641761
0.000641763
0.000641835
0.000641837
0.000641769
0.000641772
0.000641774
0.000641776
0.000641778
0.00064185
0.000641782
0.000641854
0.000641787
0.000641859
0.000641791
0.000641794
0.000641796
0.000641867
0.000641869
0.000641871
0.000641804
0.000641806
0.000641878
0.000641811
0.000641813
0.000641815
0.000641817
0.000641889
0.000641821
0.000641893
0.000641896
0.000641898
0.00064183
0.000641902
0.000641834
0.000641907
0.000641838
0.00064184
0.000641842
0.000641915
0.000641847
0.00064185
0.000641852
0.000641924
0.000641856
0.000641858
0.000641861
0.000641863
0.000641865
0.000641867
0.000641939
0.000641942
0.000641874
0.000641876
0.000641878
0.00064195
0.000641882
0.000641954
0.000641886
0.000641959
0.000641891
0.000641893
0.000641895
0.000641897
0.00064197
0.000641902
0.000641974
0.000641976
0.000641978
0.00064198
0.000641912
0.000641914
0.000641916
0.000641918
0.000641991
0.000641993
0.000641925
0.000641928
0.00064193
0.000641933
0.000641934
0.000641937
0.00064201
0.000642011
0.000642014
0.000641945
0.000641948
0.000642019
0.000642022
0.000641954
0.000642026
0.000641958
0.000642032
0.000641964
0.000641965
0.000641968
0.00064197
0.000641973
0.000641974
0.000642047
0.000641979
0.000641981
0.000641983
0.000641985
0.000641987
0.000642059
0.000641991
0.000641993
0.000641997
0.000642069
0.000642001
0.000641933
0.000641935
0.000642007
0.000642009
0.000641941
0.000641943
0.000642016
0.000641948
0.000642021
0.000642022
0.000641954
0.000641957
0.000642028
0.000641961
0.000642034
0.000641966
0.000642038
0.00064197
0.000642042
0.000641974
0.000642047
0.000641979
0.000641982
0.000641983
0.000641986
0.000641988
0.00064206
0.000641992
0.000641995
0.000641997
0.000642069
0.000642
0.000642003
0.000642076
0.000642078
0.00064201
0.000642012
0.000642084
0.000642017
0.000642019
0.000642092
0.000642093
0.000642096
0.000642028
0.000642101
0.000642102
0.000642035
0.000642037
0.000642109
0.000642111
0.000642114
0.000642116
0.000642047
0.00064205
0.000642122
0.000642125
0.000642127
0.000642059
0.000642131
0.000642134
0.000642136
0.000642138
0.00064207
0.000642073
0.000642145
0.000642147
0.000642079
0.000642082
0.000642084
0.000642156
0.000642158
0.000642161
0.000642163
0.000642165
0.000642167
0.0006421
0.000642102
0.000642104
0.000642176
0.000642109
0.000642181
0.000642183
0.000642115
0.000642117
0.00064219
0.000642192
0.000642125
0.000642197
0.000642128
0.000642131
0.000642203
0.000642136
0.000642138
0.00064214
0.000642212
0.000642145
0.000642147
0.000642149
0.000642152
0.000642224
0.000642226
0.000642228
0.000642161
0.000642163
0.000642235
0.000642238
0.00064224
0.000642241
0.000642244
0.000642177
0.000642179
0.000642181
0.000642183
0.000642256
0.000642258
0.00064219
0.000642192
0.000642195
0.000642267
0.000642199
0.000642201
0.000642204
0.000642206
0.000642279
0.00064228
0.000642213
0.000642285
0.000642217
0.00064222
0.000642293
0.000642295
0.000642297
0.000642299
0.000642301
0.000642233
0.000642306
0.000642238
0.000642311
0.000642243
0.000642245
0.000642317
0.00064225
0.000642322
0.000642253
0.000642325
0.000642258
0.000642261
0.000642334
0.000642335
0.000642338
0.00064227
0.000642273
0.000642345
0.000642347
0.00064235
0.000642352
0.000642354
0.000642357
0.000642289
0.000642361
0.000642294
0.000642365
0.000642298
0.0006423
0.000642302
0.000642305
0.000642377
0.000642379
0.000642312
0.000642384
0.000642387
0.000642388
0.000642321
0.000642323
0.000642396
0.000642328
0.00064233
0.000642332
0.000642335
0.000642337
0.00064234
0.000642342
0.000642414
0.000642416
0.000642418
)
;

boundaryField
{
    fixedWall
    {
        type            calculated;
        value           uniform 0;
    }
    outlet
    {
        type            calculated;
        value           uniform 0;
    }
    defaultFaces
    {
        type            empty;
    }
}


// ************************************************************************* //
