/*--------------------------------*- C++ -*----------------------------------*\
| =========                 |                                                 |
| \\      /  F ield         | OpenFOAM: The Open Source CFD Toolbox           |
|  \\    /   O peration     | Version:  2406                                  |
|   \\  /    A nd           | Website:  www.openfoam.com                      |
|    \\/     M anipulation  |                                                 |
\*---------------------------------------------------------------------------*/
FoamFile
{
    version     2.0;
    format      ascii;
    arch        "LSB;label=32;scalar=64";
    class       volScalarField;
    location    "1.6";
    object      T;
}
// * * * * * * * * * * * * * * * * * * * * * * * * * * * * * * * * * * * * * //

dimensions      [0 0 0 1 0 0 0];

internalField   nonuniform List<scalar> 
1000
(
329.277
388.007
437.359
480.101
517.833
551.586
581.964
609.54
634.84
658.041
679.382
699.056
717.223
734.017
749.554
763.933
777.243
789.561
800.958
811.497
821.236
830.228
838.524
846.168
853.203
859.669
865.604
871.043
876.018
880.562
884.704
888.471
891.892
894.989
897.788
900.311
902.579
904.597
906.4
908.023
909.463
910.736
911.858
912.841
913.699
914.444
915.087
915.638
916.108
916.504
916.835
917.109
917.332
917.51
917.649
917.755
917.832
917.883
917.914
917.927
917.925
917.91
917.886
917.854
917.816
917.773
917.727
917.679
917.63
917.58
917.53
917.481
917.433
917.387
917.342
917.3
917.259
917.221
917.184
917.15
917.118
917.088
917.06
917.033
917.009
916.986
916.964
916.944
916.926
916.908
916.892
916.876
916.862
916.848
916.835
916.822
916.81
916.799
916.787
916.777
916.766
916.756
916.746
916.737
916.727
916.718
916.709
916.7
916.692
916.683
916.675
916.667
916.659
916.652
916.645
916.638
916.631
916.625
916.62
916.614
916.609
916.605
916.601
916.597
916.594
916.592
916.59
916.589
916.588
916.587
916.588
916.588
916.59
916.591
916.593
916.596
916.599
916.602
916.606
916.609
916.613
916.617
916.622
916.626
916.63
916.634
916.638
916.642
916.645
916.649
916.652
916.654
916.657
916.659
916.66
916.661
916.662
916.662
916.661
916.66
916.659
916.658
916.656
916.653
916.651
916.648
916.645
916.641
916.638
916.635
916.632
916.629
916.626
916.623
916.621
916.619
916.618
916.617
916.617
916.617
916.617
916.618
916.619
916.621
916.623
916.625
916.627
916.63
916.632
916.634
916.637
916.638
916.64
916.641
916.642
916.642
916.641
916.641
916.639
916.637
916.634
916.63
916.626
916.621
916.615
916.609
916.602
916.595
916.588
916.58
916.572
916.564
916.556
916.548
916.541
916.534
916.528
916.522
916.516
916.511
916.506
916.502
916.498
916.495
916.493
916.492
916.492
916.494
916.497
916.502
916.506
916.51
916.512
916.51
916.499
916.475
916.433
916.367
916.272
916.144
915.974
915.736
915.333
914.486
912.361
906.25
886.224
805.472
613.259
482.295
400.296
352.134
325.066
310.234
302.216
297.913
295.612
294.384
293.73
293.381
293.196
293.097
293.044
293.016
293.001
292.994
292.989
292.987
292.986
292.985
292.985
292.985
292.985
292.985
292.985
292.985
292.985
292.985
292.985
292.985
292.985
292.985
292.985
292.985
292.985
292.985
292.985
292.985
292.985
292.985
292.985
292.985
292.985
292.985
292.985
292.985
292.985
292.985
292.985
292.985
292.985
292.985
292.985
292.985
292.985
292.985
292.985
292.985
292.985
292.985
292.985
292.985
292.985
292.985
292.985
292.985
292.985
292.985
292.985
292.985
292.985
292.985
292.985
292.986
292.986
292.986
292.986
292.986
292.986
292.986
292.986
292.986
292.986
292.986
292.986
292.986
292.986
292.986
292.986
292.986
292.986
292.986
292.986
292.986
292.986
292.986
292.986
292.986
292.986
292.986
292.986
292.986
292.986
292.986
292.986
292.986
292.986
292.986
292.986
292.986
292.986
292.986
292.986
292.986
292.986
292.986
292.986
292.986
292.986
292.986
292.986
292.986
292.986
292.986
292.986
292.986
292.986
292.986
292.987
292.987
292.987
292.987
292.987
292.987
292.987
292.987
292.987
292.987
292.987
292.987
292.987
292.987
292.987
292.987
292.987
292.987
292.987
292.987
292.987
292.987
292.987
292.987
292.987
292.987
292.987
292.987
292.987
292.987
292.987
292.987
292.987
292.987
292.987
292.987
292.987
292.987
292.987
292.987
292.987
292.987
292.987
292.987
292.987
292.987
292.987
292.987
292.987
292.987
292.987
292.987
292.987
292.987
292.987
292.987
292.987
292.988
292.988
292.988
292.988
292.988
292.988
292.988
292.988
292.988
292.988
292.988
292.988
292.988
292.988
292.988
292.988
292.988
292.988
292.988
292.988
292.988
292.988
292.988
292.988
292.988
292.988
292.988
292.988
292.988
292.988
292.988
292.988
292.988
292.988
292.988
292.988
292.988
292.988
292.988
292.988
292.988
292.988
292.988
292.988
292.988
292.988
292.988
292.988
292.988
292.988
292.988
292.988
292.988
292.988
292.988
292.988
292.989
292.989
292.989
292.989
292.989
292.989
292.989
292.989
292.989
292.989
292.989
292.989
292.989
292.989
292.989
292.989
292.989
292.989
292.989
292.989
292.989
292.989
292.989
292.989
292.989
292.989
292.989
292.989
292.989
292.989
292.989
292.989
292.989
292.989
292.989
292.989
292.989
292.989
292.989
292.989
292.989
292.989
292.989
292.989
292.989
292.989
292.989
292.989
292.989
292.989
292.989
292.989
292.989
292.989
292.99
292.99
292.99
292.99
292.99
292.99
292.99
292.99
292.99
292.99
292.99
292.99
292.99
292.99
292.99
292.99
292.99
292.99
292.99
292.99
292.99
292.99
292.99
292.99
292.99
292.99
292.99
292.99
292.99
292.99
292.99
292.99
292.99
292.99
292.99
292.99
292.99
292.99
292.99
292.99
292.99
292.99
292.99
292.99
292.99
292.99
292.99
292.99
292.99
292.99
292.99
292.99
292.99
292.991
292.991
292.991
292.991
292.991
292.991
292.991
292.991
292.991
292.991
292.991
292.991
292.991
292.991
292.991
292.991
292.991
292.991
292.991
292.991
292.991
292.991
292.991
292.991
292.991
292.991
292.991
292.991
292.991
292.991
292.991
292.991
292.991
292.991
292.991
292.991
292.991
292.991
292.991
292.991
292.991
292.991
292.991
292.991
292.991
292.991
292.991
292.991
292.991
292.991
292.991
292.991
292.991
292.992
292.992
292.992
292.992
292.992
292.992
292.992
292.992
292.992
292.992
292.992
292.992
292.992
292.992
292.992
292.992
292.992
292.992
292.992
292.992
292.992
292.992
292.992
292.992
292.992
292.992
292.992
292.992
292.992
292.992
292.992
292.992
292.992
292.992
292.992
292.992
292.992
292.992
292.992
292.992
292.992
292.992
292.992
292.992
292.992
292.992
292.992
292.992
292.992
292.992
292.992
292.992
292.993
292.993
292.993
292.993
292.993
292.993
292.993
292.993
292.993
292.993
292.993
292.993
292.993
292.993
292.993
292.993
292.993
292.993
292.993
292.993
292.993
292.993
292.993
292.993
292.993
292.993
292.993
292.993
292.993
292.993
292.993
292.993
292.993
292.993
292.993
292.993
292.993
292.993
292.993
292.993
292.993
292.993
292.993
292.993
292.993
292.993
292.993
292.993
292.993
292.993
292.993
292.993
292.994
292.994
292.994
292.994
292.994
292.994
292.994
292.994
292.994
292.994
292.994
292.994
292.994
292.994
292.994
292.994
292.994
292.994
292.994
292.994
292.994
292.994
292.994
292.994
292.994
292.994
292.994
292.994
292.994
292.994
292.994
292.994
292.994
292.994
292.994
292.994
292.994
292.994
292.994
292.994
292.994
292.994
292.994
292.994
292.994
292.994
292.994
292.994
292.994
292.994
292.994
292.995
292.995
292.995
292.995
292.995
292.995
292.995
292.995
292.995
292.995
292.995
292.995
292.995
292.995
292.995
292.995
292.995
292.995
292.995
292.995
292.995
292.995
292.995
292.995
292.995
292.995
292.995
292.995
292.995
292.995
292.995
292.995
292.995
292.995
292.995
292.995
292.995
292.995
292.995
292.995
292.995
292.995
292.995
292.995
292.995
292.995
292.995
292.995
292.995
292.995
292.995
292.996
292.996
292.996
292.996
292.996
292.996
292.996
292.996
292.996
292.996
292.996
292.996
292.996
292.996
292.996
292.996
292.996
292.996
292.996
292.996
292.996
292.996
292.996
292.996
292.996
292.996
292.996
292.996
292.996
292.996
292.996
292.996
292.996
292.996
292.996
292.996
292.996
292.996
292.996
292.996
292.996
292.996
292.996
292.996
292.996
292.996
292.996
292.996
292.996
292.996
292.997
292.997
292.997
292.997
292.997
292.997
292.997
292.997
292.997
292.997
292.997
292.997
292.997
292.997
292.997
292.997
292.997
292.997
292.997
292.997
292.997
292.997
292.997
292.997
292.997
292.997
292.997
292.997
292.997
292.997
292.997
292.997
292.997
292.997
292.997
292.997
292.997
292.997
292.997
292.997
292.997
292.997
292.997
292.997
292.997
292.997
292.997
292.997
292.997
292.998
292.998
292.998
292.998
292.998
292.998
292.998
292.998
292.998
292.998
292.998
292.998
292.998
292.998
292.998
292.998
292.998
292.998
292.998
292.998
292.998
292.998
292.998
292.998
292.998
292.998
292.998
292.998
292.998
292.998
292.998
292.998
292.998
292.998
292.998
292.998
292.998
292.998
292.998
292.998
292.998
292.998
292.998
292.998
)
;

boundaryField
{
    fixedWall
    {
        type            fixedValue;
        value           uniform 293;
    }
    outlet
    {
        type            inletOutlet;
        inletValue      uniform 293;
        value           uniform 292.998;
    }
    defaultFaces
    {
        type            empty;
    }
}


// ************************************************************************* //
