/*--------------------------------*- C++ -*----------------------------------*\
| =========                 |                                                 |
| \\      /  F ield         | OpenFOAM: The Open Source CFD Toolbox           |
|  \\    /   O peration     | Version:  2406                                  |
|   \\  /    A nd           | Website:  www.openfoam.com                      |
|    \\/     M anipulation  |                                                 |
\*---------------------------------------------------------------------------*/
FoamFile
{
    version     2.0;
    format      ascii;
    arch        "LSB;label=32;scalar=64";
    class       volScalarField;
    location    "4.9";
    object      H2O;
}
// * * * * * * * * * * * * * * * * * * * * * * * * * * * * * * * * * * * * * //

dimensions      [0 0 0 0 0 0 0];

internalField   nonuniform List<scalar> 
1000
(
0.0580664
0.0580664
0.0580664
0.0580664
0.0580664
0.0580664
0.0580664
0.0580664
0.0580664
0.0580664
0.0580664
0.0580664
0.0580664
0.0580664
0.0580665
0.0580665
0.0580665
0.0580665
0.0580665
0.0580665
0.0580665
0.0580665
0.0580666
0.0580666
0.0580666
0.0580666
0.0580666
0.0580666
0.0580666
0.0580666
0.0580666
0.0580667
0.0580667
0.0580667
0.0580667
0.0580667
0.0580667
0.0580667
0.0580667
0.0580667
0.0580668
0.0580668
0.0580668
0.0580668
0.0580668
0.0580668
0.0580668
0.0580668
0.0580668
0.0580668
0.0580668
0.0580668
0.0580668
0.0580669
0.0580669
0.0580669
0.0580669
0.0580669
0.0580669
0.0580669
0.0580669
0.0580669
0.0580669
0.0580669
0.0580669
0.0580669
0.0580669
0.0580669
0.0580669
0.0580669
0.0580669
0.0580669
0.0580669
0.0580669
0.0580669
0.0580669
0.0580669
0.0580669
0.0580669
0.0580669
0.0580669
0.0580669
0.0580669
0.0580669
0.0580669
0.0580669
0.0580669
0.0580669
0.0580669
0.0580669
0.0580669
0.0580669
0.0580669
0.0580669
0.0580669
0.0580669
0.0580669
0.0580669
0.0580669
0.0580669
0.0580669
0.0580669
0.0580669
0.0580669
0.0580669
0.0580669
0.0580669
0.0580669
0.0580669
0.0580669
0.0580669
0.0580669
0.0580669
0.0580669
0.0580669
0.0580669
0.0580669
0.0580669
0.0580669
0.0580669
0.0580669
0.0580669
0.0580669
0.0580669
0.0580669
0.0580669
0.0580669
0.0580669
0.0580669
0.0580669
0.0580669
0.0580669
0.0580669
0.0580669
0.0580669
0.0580669
0.0580669
0.0580669
0.0580669
0.0580669
0.0580669
0.0580669
0.0580669
0.0580669
0.0580669
0.0580669
0.0580669
0.0580669
0.0580669
0.0580669
0.0580669
0.0580669
0.0580669
0.0580669
0.0580669
0.0580669
0.0580669
0.0580669
0.0580669
0.0580669
0.0580669
0.0580669
0.0580669
0.0580669
0.0580669
0.0580669
0.0580669
0.0580669
0.0580669
0.0580669
0.0580669
0.0580669
0.0580669
0.0580669
0.0580669
0.0580669
0.0580669
0.0580669
0.0580669
0.0580669
0.0580669
0.0580669
0.0580669
0.0580669
0.0580669
0.0580669
0.0580669
0.0580669
0.0580669
0.0580669
0.0580669
0.0580669
0.0580669
0.0580669
0.0580669
0.0580669
0.0580669
0.0580669
0.0580669
0.0580669
0.0580669
0.0580669
0.0580669
0.0580669
0.0580669
0.0580669
0.0580669
0.0580669
0.0580669
0.0580669
0.0580669
0.0580669
0.0580669
0.0580669
0.0580669
0.0580669
0.0580669
0.0580669
0.0580669
0.0580669
0.0580669
0.0580669
0.0580669
0.0580669
0.0580669
0.0580669
0.0580669
0.0580669
0.0580669
0.0580669
0.0580669
0.0580669
0.0580669
0.0580669
0.0580669
0.0580669
0.0580669
0.0580669
0.0580669
0.0580669
0.0580669
0.0580669
0.0580669
0.0580669
0.0580669
0.0580669
0.0580669
0.0580669
0.0580669
0.0580669
0.0580669
0.0580669
0.0580669
0.0580669
0.0580669
0.0580669
0.0580669
0.0580669
0.0580669
0.0580669
0.0580669
0.0580669
0.0580669
0.0580669
0.0580669
0.0580669
0.0580669
0.0580669
0.0580669
0.0580669
0.0580669
0.0580669
0.0580669
0.0580669
0.0580669
0.0580669
0.0580669
0.0580669
0.0580669
0.0580669
0.0580669
0.0580669
0.0580669
0.0580669
0.0580668
0.0580668
0.0580668
0.0580668
0.0580668
0.0580668
0.0580668
0.0580668
0.0580668
0.0580668
0.0580668
0.0580668
0.0580668
0.0580668
0.0580668
0.0580668
0.0580668
0.0580668
0.0580668
0.0580668
0.0580668
0.0580668
0.0580668
0.0580668
0.0580668
0.0580668
0.0580668
0.0580668
0.0580668
0.0580668
0.0580668
0.0580668
0.0580668
0.0580668
0.0580668
0.0580668
0.0580668
0.0580668
0.0580668
0.0580668
0.0580668
0.0580668
0.0580668
0.0580668
0.0580668
0.0580668
0.0580668
0.0580668
0.0580668
0.0580668
0.0580668
0.0580668
0.0580668
0.0580668
0.0580668
0.0580668
0.0580668
0.0580668
0.0580668
0.0580668
0.0580668
0.0580668
0.0580668
0.0580668
0.0580668
0.0580668
0.0580668
0.0580668
0.0580668
0.0580668
0.0580668
0.0580668
0.0580668
0.0580668
0.0580668
0.0580668
0.0580668
0.0580668
0.0580668
0.0580668
0.0580668
0.0580668
0.0580668
0.0580668
0.0580668
0.0580668
0.0580668
0.0580668
0.0580668
0.0580668
0.0580668
0.0580668
0.0580668
0.0580668
0.0580668
0.0580668
0.0580668
0.0580668
0.0580668
0.0580668
0.0580668
0.0580668
0.0580668
0.0580668
0.0580668
0.0580668
0.0580668
0.0580668
0.0580668
0.0580668
0.0580668
0.0580668
0.0580668
0.0580667
0.0580667
0.0580667
0.0580667
0.0580667
0.0580667
0.0580667
0.0580667
0.0580667
0.0580667
0.0580667
0.0580667
0.0580667
0.0580667
0.0580667
0.0580667
0.0580667
0.0580667
0.0580667
0.0580667
0.0580667
0.0580667
0.0580667
0.0580667
0.0580667
0.0580667
0.0580667
0.0580667
0.0580667
0.0580667
0.0580667
0.0580667
0.0580667
0.0580667
0.0580667
0.0580667
0.0580667
0.0580667
0.0580667
0.0580667
0.0580667
0.0580667
0.0580667
0.0580667
0.0580667
0.0580667
0.0580667
0.0580667
0.0580667
0.0580667
0.0580667
0.0580667
0.0580667
0.0580667
0.0580667
0.0580667
0.0580667
0.0580667
0.0580667
0.0580667
0.0580667
0.0580667
0.0580667
0.0580667
0.0580667
0.0580667
0.0580667
0.0580667
0.0580667
0.0580667
0.0580666
0.0580666
0.0580666
0.0580666
0.0580666
0.0580666
0.0580666
0.0580666
0.0580666
0.0580666
0.0580666
0.0580666
0.0580666
0.0580666
0.0580666
0.0580666
0.0580666
0.0580666
0.0580666
0.0580666
0.0580666
0.0580666
0.0580666
0.0580666
0.0580666
0.0580666
0.0580666
0.0580666
0.0580666
0.0580666
0.0580666
0.0580666
0.0580666
0.0580666
0.0580666
0.0580666
0.0580666
0.0580666
0.0580666
0.0580666
0.0580666
0.0580666
0.0580666
0.0580666
0.0580666
0.0580666
0.0580666
0.0580666
0.0580666
0.0580665
0.0580665
0.0580665
0.0580665
0.0580665
0.0580665
0.0580665
0.0580665
0.0580665
0.0580665
0.0580665
0.0580665
0.0580665
0.0580665
0.0580665
0.0580665
0.0580665
0.0580665
0.0580665
0.0580665
0.0580665
0.0580665
0.0580665
0.0580665
0.0580665
0.0580665
0.0580665
0.0580665
0.0580665
0.0580665
0.0580665
0.0580665
0.0580665
0.0580665
0.0580665
0.0580664
0.0580664
0.0580664
0.0580664
0.0580664
0.0580664
0.0580664
0.0580664
0.0580664
0.0580664
0.0580664
0.0580664
0.0580664
0.0580664
0.0580664
0.0580664
0.0580664
0.0580664
0.0580664
0.0580664
0.0580664
0.0580664
0.0580664
0.0580664
0.0580664
0.0580664
0.0580664
0.0580663
0.0580663
0.0580663
0.0580663
0.0580663
0.0580663
0.0580663
0.0580663
0.0580663
0.0580663
0.0580663
0.0580663
0.0580663
0.0580663
0.0580663
0.0580663
0.0580663
0.0580663
0.0580663
0.0580663
0.0580663
0.0580662
0.0580662
0.0580662
0.0580662
0.0580662
0.0580662
0.0580662
0.0580662
0.0580662
0.0580662
0.0580662
0.0580662
0.0580662
0.0580662
0.0580662
0.0580662
0.0580662
0.0580661
0.0580661
0.0580661
0.0580661
0.0580661
0.0580661
0.0580661
0.0580661
0.0580661
0.0580661
0.0580661
0.0580661
0.0580661
0.0580661
0.058066
0.058066
0.058066
0.058066
0.058066
0.058066
0.058066
0.058066
0.058066
0.058066
0.058066
0.058066
0.0580659
0.0580659
0.0580659
0.0580659
0.0580659
0.0580659
0.0580659
0.0580659
0.0580659
0.0580659
0.0580658
0.0580658
0.0580658
0.0580658
0.0580658
0.0580658
0.0580658
0.0580658
0.0580658
0.0580657
0.0580657
0.0580657
0.0580657
0.0580657
0.0580657
0.0580657
0.0580656
0.0580656
0.0580656
0.0580656
0.0580656
0.0580656
0.0580656
0.0580655
0.0580655
0.0580655
0.0580655
0.0580655
0.0580655
0.0580654
0.0580654
0.0580654
0.0580654
0.0580654
0.0580653
0.0580653
0.0580653
0.0580653
0.0580653
0.0580652
0.0580652
0.0580652
0.0580652
0.0580651
0.0580651
0.0580651
0.0580651
0.058065
0.058065
0.058065
0.058065
0.0580649
0.0580649
0.0580649
0.0580648
0.0580648
0.0580648
0.0580647
0.0580647
0.0580646
0.0580646
0.0580646
0.0580645
0.0580645
0.0580644
0.0580644
0.0580643
0.0580643
0.0580642
0.0580642
0.0580641
0.0580641
0.058064
0.058064
0.0580639
0.0580638
0.0580638
0.0580637
0.0580636
0.0580636
0.0580635
0.0580634
0.0580633
0.0580632
0.0580631
0.058063
0.0580629
0.0580628
0.0580627
0.0580626
0.0580624
0.0580623
0.0580622
0.058062
0.0580619
0.0580617
0.0580615
0.0580613
0.0580611
0.0580609
0.0580607
0.0580604
0.0580602
0.0580599
0.0580596
0.0580592
0.0580589
0.0580584
0.058058
0.0580575
0.058057
0.0580563
0.0580557
0.0580549
0.058054
0.058053
0.0580519
0.0580505
0.0580489
0.058047
0.0580446
0.0580417
0.058038
0.0580332
0.0580267
0.0580176
0.0580042
0.0579837
0.0579508
0.0578942
0.0577838
0.0575134
0.0566564
0.0531345
0.0249569
0.0119157
0.00581954
0.00287836
0.00143211
0.000714239
0.000356486
0.000177948
8.88194e-05
4.43268e-05
2.21197e-05
1.10373e-05
5.50721e-06
2.74795e-06
1.37123e-06
6.84318e-07
3.41588e-07
1.70561e-07
8.52058e-08
4.26241e-08
2.13291e-08
1.07533e-08
5.46329e-09
2.77717e-09
1.59013e-09
1.11224e-09
6.60471e-10
4.15106e-10
2.85832e-10
2.29737e-10
1.98165e-10
1.803e-10
1.72096e-10
1.68079e-10
1.65525e-10
1.64057e-10
1.63253e-10
1.62698e-10
1.62467e-10
1.62274e-10
1.62177e-10
1.62094e-10
1.62066e-10
1.62047e-10
1.62034e-10
1.62028e-10
1.62025e-10
1.62022e-10
1.62021e-10
1.62021e-10
1.62021e-10
1.62022e-10
1.62023e-10
1.62023e-10
1.62024e-10
1.62025e-10
1.62026e-10
1.62027e-10
1.62028e-10
1.62028e-10
1.62029e-10
1.6203e-10
1.6203e-10
1.62031e-10
1.62032e-10
1.62033e-10
1.62034e-10
1.62035e-10
1.62036e-10
1.62036e-10
1.62037e-10
1.62038e-10
1.62039e-10
1.6204e-10
1.6204e-10
1.62041e-10
1.62041e-10
1.62042e-10
1.62043e-10
1.62044e-10
1.62045e-10
1.62045e-10
1.62046e-10
1.62047e-10
1.62048e-10
1.62049e-10
1.6205e-10
1.6205e-10
1.62051e-10
1.62051e-10
1.62052e-10
1.62053e-10
1.62054e-10
1.62055e-10
1.62056e-10
1.62057e-10
1.62057e-10
1.62058e-10
1.62059e-10
1.6206e-10
1.62061e-10
1.62062e-10
1.62062e-10
1.62063e-10
1.62064e-10
1.62065e-10
1.62066e-10
1.62067e-10
1.62068e-10
1.62068e-10
1.62069e-10
1.6207e-10
1.62071e-10
1.62072e-10
1.62073e-10
1.62073e-10
1.62075e-10
1.62075e-10
1.62076e-10
1.62077e-10
1.62078e-10
1.62078e-10
1.62079e-10
1.6208e-10
1.62081e-10
1.62081e-10
1.62082e-10
1.62083e-10
1.62084e-10
1.62085e-10
1.62085e-10
1.62086e-10
1.62087e-10
1.62087e-10
1.62088e-10
1.62089e-10
1.6209e-10
1.62091e-10
1.62092e-10
1.62092e-10
1.62093e-10
1.62094e-10
1.62095e-10
1.62095e-10
1.62096e-10
1.62097e-10
1.62098e-10
1.62099e-10
1.621e-10
1.621e-10
1.62101e-10
1.62102e-10
1.62103e-10
1.62104e-10
1.62105e-10
1.62106e-10
1.62107e-10
1.62107e-10
1.62108e-10
1.62109e-10
1.6211e-10
1.62111e-10
1.62112e-10
1.62113e-10
1.62113e-10
1.62114e-10
1.62115e-10
1.62116e-10
1.62117e-10
1.62118e-10
1.62118e-10
1.62119e-10
1.6212e-10
1.62121e-10
1.62122e-10
1.62123e-10
1.62124e-10
1.62125e-10
1.62125e-10
1.62126e-10
1.62127e-10
1.62128e-10
1.62129e-10
1.6213e-10
1.62131e-10
1.62131e-10
1.62132e-10
1.62133e-10
1.62133e-10
1.62134e-10
1.62135e-10
1.62135e-10
1.62136e-10
1.62137e-10
1.62138e-10
1.62139e-10
1.6214e-10
1.6214e-10
1.62141e-10
1.62142e-10
1.62142e-10
1.62144e-10
1.62144e-10
1.62145e-10
1.62146e-10
1.62147e-10
1.62148e-10
1.62149e-10
1.62149e-10
1.6215e-10
1.62151e-10
1.62152e-10
1.62152e-10
1.62153e-10
)
;

boundaryField
{
    fixedWall
    {
        type            zeroGradient;
    }
    outlet
    {
        type            inletOutlet;
        inletValue      uniform 0;
        value           uniform 1.62153e-10;
    }
    defaultFaces
    {
        type            empty;
    }
}


// ************************************************************************* //
