/*--------------------------------*- C++ -*----------------------------------*\
| =========                 |                                                 |
| \\      /  F ield         | OpenFOAM: The Open Source CFD Toolbox           |
|  \\    /   O peration     | Version:  2406                                  |
|   \\  /    A nd           | Website:  www.openfoam.com                      |
|    \\/     M anipulation  |                                                 |
\*---------------------------------------------------------------------------*/
FoamFile
{
    version     2.0;
    format      ascii;
    arch        "LSB;label=32;scalar=64";
    class       volScalarField;
    location    "4.9";
    object      Qdot;
}
// * * * * * * * * * * * * * * * * * * * * * * * * * * * * * * * * * * * * * //

dimensions      [1 -1 -3 0 0 0 0];

internalField   nonuniform List<scalar> 
1000
(
1.02231e-07
2.94816e-08
-8.67912e-15
1.26219e-07
4.15756e-07
1.87157e-06
7.13694e-06
2.26121e-05
6.09572e-05
0.000144454
0.000307844
0.000600476
0.00108763
0.00184923
0.00297797
0.00457528
0.00674628
0.0095941
0.0132143
0.0176892
0.0230831
0.0294382
0.0367733
0.045081
0.0543291
0.0644613
0.0753999
0.0870482
0.0992952
0.112019
0.125091
0.13838
0.151757
0.165096
0.178279
0.191199
0.20376
0.215877
0.227482
0.238516
0.248939
0.258719
0.267838
0.276289
0.284075
0.291207
0.297704
0.303589
0.308892
0.313646
0.317886
0.321648
0.324971
0.327892
0.33045
0.33268
0.334618
0.336296
0.337748
0.339002
0.340086
0.341026
0.341844
0.342562
0.343198
0.343771
0.344295
0.344784
0.345249
0.345701
0.346149
0.3466
0.347061
0.347538
0.348034
0.348554
0.3491
0.349674
0.350278
0.350914
0.351581
0.35228
0.353011
0.353774
0.354568
0.355392
0.356246
0.357127
0.358037
0.358972
0.359932
0.360916
0.361921
0.362949
0.363995
0.365061
0.366144
0.367242
0.36835
0.36948
0.370624
0.37178
0.372947
0.374126
0.375315
0.376513
0.377719
0.378934
0.380156
0.381386
0.382622
0.383864
0.385112
0.386366
0.387625
0.388889
0.390159
0.391432
0.39271
0.393993
0.39528
0.396571
0.397866
0.399166
0.400469
0.401777
0.403088
0.404404
0.405724
0.407048
0.408376
0.409709
0.411046
0.412387
0.413733
0.415084
0.416439
0.417799
0.419164
0.420534
0.421908
0.423288
0.424674
0.426064
0.42746
0.428861
0.430269
0.431681
0.4331
0.434524
0.435955
0.437392
0.438834
0.440283
0.441739
0.443201
0.444669
0.446144
0.447626
0.449115
0.450604
0.452095
0.453606
0.455125
0.45665
0.458183
0.459722
0.461269
0.462823
0.464384
0.465953
0.46753
0.469114
0.470706
0.472306
0.473914
0.475529
0.477153
0.478785
0.480425
0.482074
0.483731
0.485396
0.487069
0.488752
0.490442
0.492142
0.49385
0.495567
0.497292
0.499027
0.500771
0.502523
0.504285
0.506056
0.507836
0.509625
0.511424
0.513232
0.515049
0.516876
0.518713
0.520559
0.522415
0.524281
0.526157
0.528042
0.529937
0.531843
0.533758
0.535684
0.53762
0.539566
0.541522
0.543489
0.545467
0.547454
0.549453
0.551462
0.553482
0.555513
0.557555
0.559608
0.561671
0.563746
0.565833
0.56793
0.570039
0.572159
0.574291
0.576434
0.578589
0.580756
0.582934
0.585125
0.587327
0.589542
0.591769
0.594008
0.596259
0.598523
0.600799
0.603088
0.60539
0.607704
0.610031
0.612372
0.614725
0.617092
0.619471
0.621864
0.624271
0.626691
0.629125
0.631572
0.634034
0.636509
0.638998
0.641502
0.64402
0.646552
0.649098
0.65166
0.654236
0.656827
0.659432
0.662053
0.664689
0.667341
0.670008
0.67269
0.675388
0.678102
0.680832
0.683578
0.68634
0.689119
0.691914
0.694726
0.697554
0.7004
0.703263
0.706142
0.70904
0.711955
0.714887
0.717837
0.720806
0.723792
0.726797
0.729821
0.732863
0.735924
0.739004
0.742103
0.745222
0.74836
0.751518
0.754693
0.757864
0.761082
0.764322
0.767582
0.770862
0.774164
0.777488
0.780832
0.784199
0.787587
0.790997
0.794429
0.797884
0.801361
0.804861
0.808384
0.81193
0.815499
0.819092
0.822708
0.826348
0.830013
0.833702
0.837415
0.841153
0.844915
0.848703
0.852516
0.856355
0.860219
0.86411
0.868026
0.871969
0.875938
0.879934
0.883957
0.888007
0.892084
0.896189
0.900322
0.904483
0.908673
0.912891
0.917137
0.921413
0.925719
0.930053
0.934418
0.938813
0.943238
0.947693
0.95218
0.956698
0.961247
0.965828
0.970441
0.975087
0.979765
0.984476
0.989221
0.993999
0.998812
1.00366
1.00854
1.01346
1.01841
1.0234
1.02842
1.03348
1.03858
1.04371
1.04889
1.0541
1.05935
1.06464
1.06997
1.07533
1.08074
1.08619
1.09168
1.09722
1.10279
1.10841
1.11407
1.11978
1.12552
1.13132
1.13716
1.14304
1.14897
1.15495
1.16098
1.16705
1.17317
1.17934
1.18557
1.19184
1.19816
1.20453
1.21093
1.21735
1.22388
1.23047
1.23711
1.2438
1.25055
1.25735
1.26422
1.27114
1.27811
1.28515
1.29224
1.29939
1.30661
1.31388
1.32122
1.32862
1.33608
1.3436
1.35119
1.35884
1.36656
1.37435
1.3822
1.39011
1.3981
1.40615
1.41427
1.42246
1.43072
1.43906
1.44746
1.45594
1.46449
1.47311
1.48181
1.49058
1.49943
1.50835
1.51736
1.52644
1.5356
1.54484
1.55416
1.56357
1.57306
1.5826
1.59218
1.60192
1.61176
1.62168
1.63169
1.64179
1.65199
1.66227
1.67266
1.68314
1.69371
1.70439
1.71517
1.72604
1.73702
1.74811
1.7593
1.7706
1.78201
1.79353
1.80516
1.81691
1.82877
1.84075
1.85285
1.86507
1.87741
1.88988
1.90247
1.91519
1.92804
1.94102
1.95414
1.96738
1.98077
1.99429
2.00795
2.02176
2.03571
2.0498
2.06404
2.07843
2.09298
2.10767
2.12253
2.13745
2.15253
2.1679
2.18341
2.19909
2.21493
2.23095
2.24713
2.26349
2.28004
2.29676
2.31366
2.33075
2.34803
2.3655
2.38316
2.40102
2.41908
2.43735
2.45582
2.4745
2.49339
2.5125
2.53182
2.55138
2.57116
2.59103
2.6111
2.63158
2.65229
2.67324
2.69443
2.71588
2.73758
2.75954
2.78176
2.80425
2.82701
2.85005
2.87337
2.89698
2.92087
2.94506
2.96956
2.99435
3.01946
3.04489
3.07064
3.09672
3.12314
3.14989
3.17699
3.20418
3.23192
3.26004
3.28854
3.31743
3.34671
3.37637
3.40644
3.43691
3.46779
3.4991
3.53084
3.56301
3.59564
3.62872
3.66226
3.69628
3.73078
3.76577
3.80127
3.83727
3.87379
3.91085
3.94844
3.98659
4.02529
4.06457
4.10443
4.14488
4.18594
4.22761
4.26991
4.31284
4.35643
4.40067
4.4456
4.49121
4.53752
4.58454
4.63229
4.68078
4.73002
4.77997
4.8303
4.88185
4.93421
4.98741
5.04146
5.09639
5.15221
5.20893
5.26657
5.32516
5.3847
5.44524
5.50677
5.56934
5.63296
5.69766
5.76346
5.83039
5.89847
5.96773
6.03821
6.10993
6.18292
6.25721
6.33284
6.40984
6.48825
6.5681
6.64942
6.73227
6.81668
6.90268
6.99034
7.07968
7.17076
7.26362
7.3583
7.45485
7.55327
7.65281
7.75522
7.85974
7.96645
8.0754
8.18666
8.30027
8.41629
8.53479
8.65584
8.77951
8.90587
9.03501
9.16699
9.3019
9.43982
9.58084
9.72503
9.87248
10.0233
10.1776
10.3354
10.4969
10.6621
10.8312
11.0042
11.1814
11.3627
11.5484
11.7385
11.9333
12.1326
12.3351
12.5445
12.7591
12.9791
13.2048
13.4363
13.6738
13.9176
14.1678
14.4248
14.6887
14.9599
15.2386
15.5251
15.8198
16.1229
16.4349
16.756
17.0868
17.4274
17.7785
18.1403
18.5134
18.8983
19.2954
19.7046
20.1242
20.5612
21.0126
21.4791
21.9614
22.46
22.9759
23.5096
24.0621
24.6342
25.2269
25.8411
26.4779
27.1384
27.8238
28.5353
29.2743
30.0423
30.8406
31.6711
32.5353
33.4351
34.3725
35.3495
36.3683
37.4314
38.5412
39.7005
40.9121
42.1793
43.5054
44.8941
46.3494
47.8756
49.4774
51.1599
52.9288
54.7903
56.7511
58.8186
61.0006
63.3059
65.7438
68.3247
71.0597
73.9611
77.0426
80.319
83.8073
87.5259
91.4956
95.7395
100.284
105.157
110.391
116.023
122.093
128.647
135.738
143.425
151.702
160.722
170.555
181.283
193.013
205.87
220.001
235.578
252.809
271.941
293.27
317.157
344.04
374.45
409.036
448.596
494.103
546.767
607.934
679.276
764.24
865.37
986.881
1134.49
1316.12
1543.01
1831.53
2205.92
2702.96
3379.46
4326.12
5695.14
7760.9
11061.5
16745.6
27476.8
50024.4
103503
248593
711372
2.38445e+06
9.16997e+06
5.89396e+07
848855
3258.37
18.1394
0.340296
0.0242027
0.00487532
0.00194559
0.00116816
0.000884398
0.000760949
0.000701839
0.000672089
0.000656717
0.000648608
0.000644297
0.000642032
0.000640858
0.00064023
0.000639787
0.000639737
0.000639564
0.000639514
0.000639563
0.000639481
0.000639552
0.000639482
0.000639559
0.000639492
0.000639572
0.000639577
0.000639511
0.000639593
0.0006396
0.000639606
0.00063954
0.000639548
0.000639628
0.000639636
0.000639643
0.000639649
0.000639659
0.000639594
0.000639673
0.00063968
0.000639687
0.000639693
0.0006397
0.000639709
0.000639716
0.000639721
0.000639655
0.000639664
0.00063967
0.000639753
0.000639688
0.000639767
0.000639775
0.000639785
0.000639792
0.000639799
0.000639806
0.00063981
0.00063982
0.000639826
0.000639762
0.000639843
0.000639777
0.000639858
0.000639794
0.000639873
0.000639881
0.000639889
0.000639895
0.00063983
0.000639908
0.000639913
0.000639848
0.000639855
0.000639864
0.00063987
0.000639877
0.000639884
0.00063982
0.000639899
0.000639906
0.000639914
0.000639922
0.000639927
0.000639933
0.000639941
0.000639949
0.000639958
0.000639966
0.000639971
0.00063998
0.000639987
0.000639993
0.00063993
0.000640008
0.000640018
0.000640024
0.000640033
0.000639967
0.000640048
0.000640056
0.000640062
0.000640071
0.000640006
0.000640085
0.000640092
0.000640027
0.000640035
0.000640116
0.000640123
0.000640131
0.000640138
0.000640075
0.000640154
0.000640161
0.00064017
0.000640176
0.000640183
0.00064019
0.000640196
0.000640204
0.000640211
0.000640146
0.000640225
0.000640233
0.000640167
0.000640247
0.000640255
0.000640261
0.000640267
0.000640276
0.000640283
0.00064029
0.000640297
0.000640304
0.000640311
0.000640317
0.000640322
0.000640332
0.000640339
0.000640346
0.000640353
0.000640363
0.000640368
0.000640306
0.000640383
0.000640392
0.000640403
0.000640411
0.000640419
0.000640427
0.000640433
0.000640439
0.000640446
0.00064038
0.000640459
0.000640469
0.000640477
0.000640484
0.000640493
0.000640428
0.00064051
0.000640442
0.000640522
0.00064053
0.000640538
0.000640545
0.000640554
0.000640562
0.000640569
0.000640577
0.000640512
0.000640593
0.000640601
0.000640609
0.000640617
0.000640625
0.000640559
0.000640568
0.000640576
0.000640582
0.000640588
0.000640594
0.000640599
0.000640606
0.000640613
0.000640619
0.000640628
0.000640633
0.000640642
0.00064065
0.000640655
0.000640663
0.000640669
0.000640677
0.000640685
0.00064069
0.000640699
0.000640705
0.000640714
0.000640648
0.000640655
0.000640736
0.000640745
0.000640751
0.000640757
0.000640765
0.000640772
0.000640779
0.000640787
)
;

boundaryField
{
    fixedWall
    {
        type            calculated;
        value           uniform 0;
    }
    outlet
    {
        type            calculated;
        value           uniform 0;
    }
    defaultFaces
    {
        type            empty;
    }
}


// ************************************************************************* //
