/*--------------------------------*- C++ -*----------------------------------*\
| =========                 |                                                 |
| \\      /  F ield         | OpenFOAM: The Open Source CFD Toolbox           |
|  \\    /   O peration     | Version:  2406                                  |
|   \\  /    A nd           | Website:  www.openfoam.com                      |
|    \\/     M anipulation  |                                                 |
\*---------------------------------------------------------------------------*/
FoamFile
{
    version     2.0;
    format      ascii;
    arch        "LSB;label=32;scalar=64";
    class       volScalarField;
    location    "4.9";
    object      T;
}
// * * * * * * * * * * * * * * * * * * * * * * * * * * * * * * * * * * * * * //

dimensions      [0 0 0 1 0 0 0];

internalField   nonuniform List<scalar> 
1000
(
311.821
345.292
375.386
402.799
428.012
451.373
473.144
493.53
512.693
530.765
547.854
564.051
579.434
594.068
608.009
621.308
634.008
646.147
657.759
668.875
679.524
689.728
699.513
708.897
717.902
726.543
734.838
742.801
750.447
757.789
764.839
771.609
778.111
784.354
790.348
796.103
801.628
806.931
812.02
816.904
821.589
826.082
830.392
834.523
838.484
842.279
845.914
849.396
852.73
855.921
858.974
861.895
864.688
867.358
869.91
872.347
874.674
876.896
879.015
881.037
882.965
884.802
886.552
888.219
889.805
891.314
892.75
894.114
895.411
896.642
897.811
898.92
899.972
900.969
901.914
902.809
903.656
904.457
905.215
905.931
906.607
907.246
907.848
908.417
908.953
909.457
909.933
910.38
910.8
911.196
911.567
911.916
912.244
912.55
912.838
913.108
913.36
913.595
913.815
914.021
914.214
914.394
914.561
914.718
914.863
914.999
915.125
915.242
915.351
915.452
915.546
915.633
915.714
915.788
915.857
915.921
915.98
916.034
916.084
916.13
916.173
916.212
916.248
916.281
916.311
916.339
916.364
916.388
916.409
916.428
916.446
916.462
916.477
916.49
916.502
916.513
916.523
916.532
916.54
916.547
916.554
916.56
916.565
916.57
916.574
916.577
916.581
916.584
916.586
916.588
916.59
916.592
916.593
916.595
916.596
916.596
916.597
916.598
916.598
916.598
916.598
916.598
916.598
916.598
916.598
916.598
916.598
916.597
916.597
916.596
916.596
916.595
916.594
916.594
916.593
916.592
916.592
916.591
916.59
916.589
916.588
916.587
916.587
916.586
916.585
916.584
916.583
916.582
916.581
916.58
916.579
916.578
916.576
916.575
916.574
916.573
916.572
916.571
916.57
916.568
916.567
916.566
916.565
916.563
916.562
916.561
916.56
916.558
916.557
916.556
916.554
916.553
916.552
916.55
916.549
916.548
916.546
916.545
916.544
916.542
916.541
916.54
916.538
916.537
916.536
916.534
916.533
916.531
916.53
916.529
916.527
916.526
916.525
916.523
916.522
916.521
916.519
916.518
916.517
916.516
916.514
916.513
916.512
916.511
916.509
916.508
916.507
916.506
916.505
916.504
916.503
916.501
916.5
916.499
916.498
916.497
916.496
916.495
916.494
916.493
916.492
916.492
916.491
916.49
916.489
916.488
916.487
916.487
916.486
916.485
916.485
916.484
916.483
916.483
916.482
916.482
916.481
916.481
916.48
916.48
916.479
916.479
916.478
916.478
916.478
916.477
916.477
916.477
916.477
916.476
916.476
916.476
916.476
916.476
916.476
916.475
916.475
916.475
916.475
916.475
916.475
916.475
916.475
916.475
916.475
916.476
916.476
916.476
916.476
916.476
916.476
916.476
916.477
916.477
916.477
916.477
916.478
916.478
916.478
916.479
916.479
916.479
916.48
916.48
916.48
916.481
916.481
916.482
916.482
916.483
916.483
916.484
916.484
916.485
916.485
916.486
916.486
916.487
916.487
916.488
916.489
916.489
916.49
916.49
916.491
916.492
916.492
916.493
916.494
916.495
916.495
916.496
916.497
916.498
916.498
916.499
916.5
916.501
916.501
916.502
916.503
916.504
916.504
916.505
916.506
916.507
916.508
916.508
916.509
916.51
916.511
916.511
916.512
916.513
916.514
916.514
916.515
916.516
916.516
916.517
916.517
916.518
916.519
916.519
916.52
916.52
916.521
916.521
916.521
916.522
916.522
916.522
916.523
916.523
916.523
916.523
916.523
916.523
916.523
916.523
916.523
916.523
916.523
916.523
916.523
916.523
916.522
916.522
916.522
916.522
916.521
916.521
916.52
916.52
916.519
916.519
916.518
916.518
916.517
916.517
916.516
916.516
916.515
916.514
916.514
916.513
916.513
916.512
916.512
916.511
916.511
916.51
916.51
916.509
916.509
916.508
916.508
916.508
916.507
916.507
916.507
916.507
916.506
916.506
916.506
916.506
916.506
916.506
916.506
916.506
916.506
916.507
916.507
916.507
916.507
916.508
916.508
916.508
916.509
916.509
916.509
916.51
916.51
916.511
916.511
916.511
916.512
916.512
916.513
916.513
916.514
916.514
916.515
916.515
916.515
916.516
916.516
916.516
916.517
916.517
916.517
916.517
916.518
916.518
916.518
916.518
916.518
916.518
916.518
916.519
916.519
916.519
916.519
916.519
916.519
916.519
916.518
916.518
916.518
916.518
916.518
916.518
916.518
916.518
916.518
916.518
916.518
916.517
916.517
916.517
916.517
916.517
916.517
916.517
916.517
916.517
916.517
916.517
916.517
916.517
916.517
916.517
916.517
916.517
916.517
916.517
916.517
916.517
916.517
916.518
916.518
916.518
916.518
916.518
916.518
916.518
916.518
916.519
916.519
916.519
916.519
916.519
916.519
916.519
916.519
916.519
916.519
916.519
916.519
916.518
916.518
916.518
916.518
916.517
916.517
916.517
916.516
916.516
916.515
916.515
916.514
916.513
916.513
916.512
916.511
916.511
916.51
916.509
916.508
916.507
916.507
916.506
916.505
916.504
916.503
916.503
916.502
916.501
916.501
916.5
916.5
916.499
916.499
916.498
916.498
916.498
916.498
916.498
916.498
916.498
916.499
916.499
916.5
916.5
916.501
916.502
916.503
916.504
916.505
916.506
916.507
916.509
916.51
916.511
916.513
916.515
916.516
916.518
916.519
916.521
916.523
916.524
916.526
916.527
916.529
916.53
916.531
916.533
916.534
916.535
916.536
916.536
916.537
916.537
916.538
916.538
916.538
916.538
916.537
916.537
916.536
916.535
916.534
916.533
916.532
916.53
916.529
916.527
916.525
916.523
916.521
916.519
916.517
916.515
916.513
916.511
916.509
916.507
916.505
916.504
916.502
916.501
916.499
916.498
916.497
916.497
916.496
916.496
916.496
916.497
916.497
916.498
916.499
916.5
916.501
916.503
916.504
916.506
916.508
916.51
916.512
916.514
916.516
916.518
916.52
916.522
916.524
916.525
916.526
916.528
916.529
916.529
916.53
916.53
916.53
916.529
916.529
916.528
916.527
916.525
916.524
916.522
916.52
916.518
916.515
916.513
916.51
916.507
916.505
916.502
916.499
916.496
916.493
916.49
916.488
916.485
916.482
916.48
916.477
916.475
916.473
916.471
916.469
916.468
916.466
916.465
916.464
916.463
916.463
916.462
916.462
916.461
916.461
916.461
916.46
916.46
916.46
916.46
916.459
916.459
916.458
916.457
916.457
916.456
916.455
916.454
916.454
916.453
916.452
916.451
916.451
916.45
916.45
916.45
916.45
916.451
916.452
916.454
916.457
916.461
916.466
916.471
916.478
916.486
916.494
916.503
916.512
916.521
916.529
916.536
916.542
916.546
916.548
916.548
916.545
916.541
916.535
916.528
916.52
916.51
916.498
916.481
916.457
916.422
916.373
916.308
916.224
916.118
915.979
915.785
915.504
915.102
914.525
913.345
908.806
884.913
647.581
497.657
407.807
356.095
327.242
311.446
302.89
298.284
295.813
294.49
293.782
293.404
293.202
293.094
293.037
293.006
292.989
292.981
292.976
292.974
292.972
292.972
292.971
292.971
292.971
292.971
292.971
292.971
292.971
292.971
292.971
292.971
292.972
292.972
292.972
292.972
292.972
292.972
292.972
292.972
292.972
292.972
292.972
292.972
292.972
292.972
292.972
292.972
292.973
292.973
292.973
292.973
292.973
292.973
292.973
292.973
292.973
292.973
292.973
292.973
292.973
292.973
292.973
292.974
292.974
292.974
292.974
292.974
292.974
292.974
292.974
292.974
292.974
292.974
292.974
292.974
292.974
292.974
292.974
292.975
292.975
292.975
292.975
292.975
292.975
292.975
292.975
292.975
292.975
292.975
292.975
292.975
292.975
292.975
292.976
292.976
292.976
292.976
292.976
292.976
292.976
292.976
292.976
292.976
292.976
292.976
292.976
292.976
292.976
292.976
292.977
292.977
292.977
292.977
292.977
292.977
292.977
292.977
292.977
292.977
292.977
292.977
292.977
292.977
292.977
292.978
292.978
292.978
292.978
292.978
292.978
292.978
292.978
292.978
292.978
292.978
292.978
292.978
292.978
292.978
292.978
292.978
292.979
292.979
292.979
292.979
292.979
292.979
292.979
292.979
292.979
292.979
292.979
292.979
292.979
292.979
292.98
292.98
292.98
292.98
292.98
292.98
292.98
292.98
292.98
292.98
292.98
292.98
292.98
292.98
292.98
292.981
292.981
292.981
292.981
292.981
292.981
292.981
292.981
292.981
292.981
292.981
292.981
292.981
292.981
292.981
292.982
292.982
292.982
292.982
292.982
292.982
292.982
292.982
292.982
292.982
292.982
292.982
292.982
292.982
292.982
292.982
292.982
292.983
292.983
292.983
292.983
292.983
292.983
292.983
292.983
292.983
292.983
292.983
)
;

boundaryField
{
    fixedWall
    {
        type            fixedValue;
        value           uniform 293;
    }
    outlet
    {
        type            inletOutlet;
        inletValue      uniform 293;
        value           uniform 292.983;
    }
    defaultFaces
    {
        type            empty;
    }
}


// ************************************************************************* //
