/*--------------------------------*- C++ -*----------------------------------*\
| =========                 |                                                 |
| \\      /  F ield         | OpenFOAM: The Open Source CFD Toolbox           |
|  \\    /   O peration     | Version:  2406                                  |
|   \\  /    A nd           | Website:  www.openfoam.com                      |
|    \\/     M anipulation  |                                                 |
\*---------------------------------------------------------------------------*/
FoamFile
{
    version     2.0;
    format      ascii;
    arch        "LSB;label=32;scalar=64";
    class       surfaceScalarField;
    location    "13.6";
    object      phi;
}
// * * * * * * * * * * * * * * * * * * * * * * * * * * * * * * * * * * * * * //

dimensions      [1 0 -1 0 0 0 0];

oriented        oriented;

internalField   nonuniform List<scalar> 
999
(
-1.15473e-08
-3.92989e-08
-7.77963e-08
-1.23571e-07
-1.74331e-07
-2.28507e-07
-2.84999e-07
-3.43029e-07
-4.0202e-07
-4.61556e-07
-5.21317e-07
-5.81084e-07
-6.40664e-07
-6.99926e-07
-7.58767e-07
-8.17117e-07
-8.74906e-07
-9.32099e-07
-9.88657e-07
-1.04456e-06
-1.09978e-06
-1.15432e-06
-1.20816e-06
-1.26131e-06
-1.31375e-06
-1.36549e-06
-1.41653e-06
-1.46687e-06
-1.51653e-06
-1.5655e-06
-1.61379e-06
-1.66141e-06
-1.70836e-06
-1.75466e-06
-1.8003e-06
-1.8453e-06
-1.88966e-06
-1.93339e-06
-1.97649e-06
-2.01898e-06
-2.06087e-06
-2.10215e-06
-2.14284e-06
-2.18294e-06
-2.22246e-06
-2.26141e-06
-2.29979e-06
-2.33761e-06
-2.37487e-06
-2.41159e-06
-2.44777e-06
-2.4834e-06
-2.51852e-06
-2.5531e-06
-2.58717e-06
-2.62072e-06
-2.65377e-06
-2.68632e-06
-2.71837e-06
-2.74993e-06
-2.781e-06
-2.81159e-06
-2.84171e-06
-2.87136e-06
-2.90053e-06
-2.92925e-06
-2.95752e-06
-2.98533e-06
-3.01269e-06
-3.03962e-06
-3.06611e-06
-3.09216e-06
-3.11779e-06
-3.14299e-06
-3.16777e-06
-3.19214e-06
-3.2161e-06
-3.23965e-06
-3.2628e-06
-3.28556e-06
-3.30792e-06
-3.32989e-06
-3.35148e-06
-3.37269e-06
-3.39352e-06
-3.41398e-06
-3.43407e-06
-3.4538e-06
-3.47317e-06
-3.49218e-06
-3.51085e-06
-3.52916e-06
-3.54714e-06
-3.56477e-06
-3.58207e-06
-3.59904e-06
-3.61568e-06
-3.632e-06
-3.648e-06
-3.66368e-06
-3.67906e-06
-3.69412e-06
-3.70889e-06
-3.72335e-06
-3.73753e-06
-3.75141e-06
-3.765e-06
-3.77831e-06
-3.79134e-06
-3.80409e-06
-3.81658e-06
-3.82879e-06
-3.84074e-06
-3.85244e-06
-3.86387e-06
-3.87506e-06
-3.88599e-06
-3.89668e-06
-3.90713e-06
-3.91734e-06
-3.92732e-06
-3.93707e-06
-3.94659e-06
-3.95589e-06
-3.96497e-06
-3.97384e-06
-3.9825e-06
-3.99094e-06
-3.99918e-06
-4.00722e-06
-4.01507e-06
-4.02272e-06
-4.03018e-06
-4.03745e-06
-4.04454e-06
-4.05145e-06
-4.05818e-06
-4.06474e-06
-4.07113e-06
-4.07735e-06
-4.08341e-06
-4.08931e-06
-4.09505e-06
-4.10064e-06
-4.10607e-06
-4.11136e-06
-4.11651e-06
-4.12151e-06
-4.12638e-06
-4.1311e-06
-4.1357e-06
-4.14016e-06
-4.1445e-06
-4.14872e-06
-4.15281e-06
-4.15678e-06
-4.16064e-06
-4.16439e-06
-4.16802e-06
-4.17154e-06
-4.17497e-06
-4.17828e-06
-4.1815e-06
-4.18462e-06
-4.18764e-06
-4.19057e-06
-4.19341e-06
-4.19616e-06
-4.19882e-06
-4.20139e-06
-4.2039e-06
-4.20633e-06
-4.20868e-06
-4.21094e-06
-4.21313e-06
-4.21524e-06
-4.21729e-06
-4.21926e-06
-4.22117e-06
-4.22302e-06
-4.22481e-06
-4.22655e-06
-4.22822e-06
-4.22983e-06
-4.23138e-06
-4.23287e-06
-4.23431e-06
-4.2357e-06
-4.23706e-06
-4.23836e-06
-4.23962e-06
-4.24085e-06
-4.24202e-06
-4.24314e-06
-4.24422e-06
-4.24526e-06
-4.24627e-06
-4.24724e-06
-4.24817e-06
-4.24907e-06
-4.24994e-06
-4.25077e-06
-4.25157e-06
-4.25233e-06
-4.25307e-06
-4.25379e-06
-4.25447e-06
-4.25513e-06
-4.25576e-06
-4.25637e-06
-4.25695e-06
-4.25751e-06
-4.25805e-06
-4.25857e-06
-4.25906e-06
-4.25953e-06
-4.25999e-06
-4.26042e-06
-4.26084e-06
-4.26124e-06
-4.26162e-06
-4.26199e-06
-4.26235e-06
-4.26269e-06
-4.26301e-06
-4.26332e-06
-4.26362e-06
-4.2639e-06
-4.26418e-06
-4.26444e-06
-4.26469e-06
-4.26492e-06
-4.26515e-06
-4.26537e-06
-4.26558e-06
-4.26577e-06
-4.26596e-06
-4.26614e-06
-4.26631e-06
-4.26648e-06
-4.26663e-06
-4.26678e-06
-4.26693e-06
-4.26706e-06
-4.26719e-06
-4.26731e-06
-4.26743e-06
-4.26754e-06
-4.26765e-06
-4.26775e-06
-4.26784e-06
-4.26794e-06
-4.26802e-06
-4.2681e-06
-4.26818e-06
-4.26825e-06
-4.26832e-06
-4.26839e-06
-4.26845e-06
-4.26851e-06
-4.26857e-06
-4.26862e-06
-4.26867e-06
-4.26872e-06
-4.26877e-06
-4.26881e-06
-4.26885e-06
-4.26889e-06
-4.26892e-06
-4.26896e-06
-4.26899e-06
-4.26902e-06
-4.26905e-06
-4.26907e-06
-4.2691e-06
-4.26912e-06
-4.26914e-06
-4.26916e-06
-4.26918e-06
-4.2692e-06
-4.26922e-06
-4.26923e-06
-4.26924e-06
-4.26926e-06
-4.26927e-06
-4.26928e-06
-4.26929e-06
-4.2693e-06
-4.26931e-06
-4.26932e-06
-4.26932e-06
-4.26933e-06
-4.26934e-06
-4.26934e-06
-4.26935e-06
-4.26935e-06
-4.26936e-06
-4.26936e-06
-4.26936e-06
-4.26936e-06
-4.26937e-06
-4.26937e-06
-4.26937e-06
-4.26937e-06
-4.26937e-06
-4.26937e-06
-4.26937e-06
-4.26937e-06
-4.26937e-06
-4.26937e-06
-4.26937e-06
-4.26937e-06
-4.26937e-06
-4.26937e-06
-4.26937e-06
-4.26937e-06
-4.26937e-06
-4.26936e-06
-4.26936e-06
-4.26936e-06
-4.26936e-06
-4.26936e-06
-4.26935e-06
-4.26935e-06
-4.26935e-06
-4.26935e-06
-4.26935e-06
-4.26934e-06
-4.26934e-06
-4.26934e-06
-4.26934e-06
-4.26934e-06
-4.26933e-06
-4.26933e-06
-4.26933e-06
-4.26933e-06
-4.26932e-06
-4.26932e-06
-4.26932e-06
-4.26932e-06
-4.26932e-06
-4.26932e-06
-4.26931e-06
-4.26931e-06
-4.26931e-06
-4.26931e-06
-4.26931e-06
-4.26931e-06
-4.26931e-06
-4.2693e-06
-4.2693e-06
-4.2693e-06
-4.2693e-06
-4.2693e-06
-4.2693e-06
-4.2693e-06
-4.26929e-06
-4.26929e-06
-4.26929e-06
-4.26929e-06
-4.26929e-06
-4.26929e-06
-4.26929e-06
-4.26929e-06
-4.26929e-06
-4.26929e-06
-4.26929e-06
-4.26929e-06
-4.26929e-06
-4.26928e-06
-4.26928e-06
-4.26928e-06
-4.26928e-06
-4.26928e-06
-4.26928e-06
-4.26928e-06
-4.26928e-06
-4.26928e-06
-4.26928e-06
-4.26928e-06
-4.26928e-06
-4.26928e-06
-4.26928e-06
-4.26928e-06
-4.26928e-06
-4.26928e-06
-4.26928e-06
-4.26928e-06
-4.26928e-06
-4.26928e-06
-4.26928e-06
-4.26928e-06
-4.26928e-06
-4.26928e-06
-4.26928e-06
-4.26928e-06
-4.26928e-06
-4.26928e-06
-4.26929e-06
-4.26929e-06
-4.26929e-06
-4.26929e-06
-4.26929e-06
-4.26929e-06
-4.26929e-06
-4.26929e-06
-4.26929e-06
-4.26929e-06
-4.26929e-06
-4.26929e-06
-4.26929e-06
-4.26929e-06
-4.26929e-06
-4.26929e-06
-4.26929e-06
-4.26929e-06
-4.26929e-06
-4.26929e-06
-4.26929e-06
-4.26929e-06
-4.26929e-06
-4.26929e-06
-4.2693e-06
-4.2693e-06
-4.2693e-06
-4.2693e-06
-4.2693e-06
-4.2693e-06
-4.2693e-06
-4.2693e-06
-4.2693e-06
-4.2693e-06
-4.2693e-06
-4.2693e-06
-4.2693e-06
-4.2693e-06
-4.2693e-06
-4.2693e-06
-4.2693e-06
-4.2693e-06
-4.2693e-06
-4.2693e-06
-4.2693e-06
-4.2693e-06
-4.2693e-06
-4.2693e-06
-4.2693e-06
-4.2693e-06
-4.2693e-06
-4.2693e-06
-4.2693e-06
-4.2693e-06
-4.2693e-06
-4.2693e-06
-4.2693e-06
-4.2693e-06
-4.2693e-06
-4.2693e-06
-4.2693e-06
-4.2693e-06
-4.2693e-06
-4.2693e-06
-4.2693e-06
-4.2693e-06
-4.2693e-06
-4.2693e-06
-4.2693e-06
-4.2693e-06
-4.2693e-06
-4.2693e-06
-4.2693e-06
-4.2693e-06
-4.2693e-06
-4.2693e-06
-4.2693e-06
-4.2693e-06
-4.2693e-06
-4.2693e-06
-4.2693e-06
-4.2693e-06
-4.2693e-06
-4.2693e-06
-4.2693e-06
-4.2693e-06
-4.2693e-06
-4.2693e-06
-4.2693e-06
-4.2693e-06
-4.2693e-06
-4.2693e-06
-4.2693e-06
-4.2693e-06
-4.2693e-06
-4.2693e-06
-4.2693e-06
-4.2693e-06
-4.26929e-06
-4.26929e-06
-4.26929e-06
-4.26929e-06
-4.26929e-06
-4.26929e-06
-4.26929e-06
-4.26929e-06
-4.26929e-06
-4.26929e-06
-4.26929e-06
-4.26929e-06
-4.26929e-06
-4.26929e-06
-4.26929e-06
-4.26929e-06
-4.26929e-06
-4.26929e-06
-4.26929e-06
-4.26929e-06
-4.26929e-06
-4.26929e-06
-4.26929e-06
-4.26929e-06
-4.26929e-06
-4.26929e-06
-4.26929e-06
-4.26929e-06
-4.26929e-06
-4.26929e-06
-4.26929e-06
-4.26929e-06
-4.26929e-06
-4.26928e-06
-4.26928e-06
-4.26928e-06
-4.26928e-06
-4.26928e-06
-4.26928e-06
-4.26928e-06
-4.26928e-06
-4.26928e-06
-4.26928e-06
-4.26928e-06
-4.26928e-06
-4.26928e-06
-4.26928e-06
-4.26928e-06
-4.26928e-06
-4.26928e-06
-4.26928e-06
-4.26928e-06
-4.26927e-06
-4.26928e-06
-4.26927e-06
-4.26927e-06
-4.26927e-06
-4.26927e-06
-4.26927e-06
-4.26927e-06
-4.26927e-06
-4.26927e-06
-4.26927e-06
-4.26927e-06
-4.26927e-06
-4.26927e-06
-4.26927e-06
-4.26927e-06
-4.26927e-06
-4.26927e-06
-4.26927e-06
-4.26927e-06
-4.26927e-06
-4.26927e-06
-4.26927e-06
-4.26927e-06
-4.26927e-06
-4.26927e-06
-4.26927e-06
-4.26927e-06
-4.26927e-06
-4.26927e-06
-4.26927e-06
-4.26926e-06
-4.26926e-06
-4.26926e-06
-4.26926e-06
-4.26926e-06
-4.26926e-06
-4.26926e-06
-4.26926e-06
-4.26926e-06
-4.26926e-06
-4.26926e-06
-4.26926e-06
-4.26926e-06
-4.26926e-06
-4.26926e-06
-4.26926e-06
-4.26926e-06
-4.26926e-06
-4.26926e-06
-4.26926e-06
-4.26926e-06
-4.26926e-06
-4.26926e-06
-4.26926e-06
-4.26926e-06
-4.26926e-06
-4.26926e-06
-4.26926e-06
-4.26926e-06
-4.26926e-06
-4.26926e-06
-4.26926e-06
-4.26926e-06
-4.26926e-06
-4.26926e-06
-4.26926e-06
-4.26926e-06
-4.26926e-06
-4.26926e-06
-4.26926e-06
-4.26926e-06
-4.26926e-06
-4.26926e-06
-4.26926e-06
-4.26926e-06
-4.26926e-06
-4.26926e-06
-4.26926e-06
-4.26926e-06
-4.26926e-06
-4.26926e-06
-4.26926e-06
-4.26926e-06
-4.26926e-06
-4.26926e-06
-4.26926e-06
-4.26926e-06
-4.26926e-06
-4.26926e-06
-4.26926e-06
-4.26926e-06
-4.26926e-06
-4.26926e-06
-4.26926e-06
-4.26926e-06
-4.26926e-06
-4.26926e-06
-4.26926e-06
-4.26926e-06
-4.26926e-06
-4.26926e-06
-4.26925e-06
-4.26925e-06
-4.26925e-06
-4.26925e-06
-4.26925e-06
-4.26925e-06
-4.26925e-06
-4.26925e-06
-4.26925e-06
-4.26925e-06
-4.26925e-06
-4.26925e-06
-4.26925e-06
-4.26925e-06
-4.26925e-06
-4.26925e-06
-4.26925e-06
-4.26924e-06
-4.26924e-06
-4.26924e-06
-4.26924e-06
-4.26924e-06
-4.26924e-06
-4.26924e-06
-4.26924e-06
-4.26924e-06
-4.26924e-06
-4.26924e-06
-4.26924e-06
-4.26924e-06
-4.26924e-06
-4.26924e-06
-4.26924e-06
-4.26923e-06
-4.26924e-06
-4.26923e-06
-4.26923e-06
-4.26923e-06
-4.26923e-06
-4.26923e-06
-4.26923e-06
-4.26923e-06
-4.26923e-06
-4.26923e-06
-4.26923e-06
-4.26923e-06
-4.26923e-06
-4.26924e-06
-4.26924e-06
-4.26924e-06
-4.26924e-06
-4.26924e-06
-4.26924e-06
-4.26924e-06
-4.26924e-06
-4.26924e-06
-4.26925e-06
-4.26925e-06
-4.26925e-06
-4.26925e-06
-4.26926e-06
-4.26926e-06
-4.26926e-06
-4.26927e-06
-4.26927e-06
-4.26928e-06
-4.26928e-06
-4.26928e-06
-4.26929e-06
-4.2693e-06
-4.2693e-06
-4.26931e-06
-4.26932e-06
-4.26933e-06
-4.26934e-06
-4.26935e-06
-4.26936e-06
-4.26937e-06
-4.26938e-06
-4.2694e-06
-4.26941e-06
-4.26943e-06
-4.26944e-06
-4.26946e-06
-4.26948e-06
-4.2695e-06
-4.26952e-06
-4.26954e-06
-4.26957e-06
-4.26959e-06
-4.26962e-06
-4.26965e-06
-4.26969e-06
-4.26972e-06
-4.26976e-06
-4.2698e-06
-4.26984e-06
-4.26989e-06
-4.26993e-06
-4.26999e-06
-4.27004e-06
-4.2701e-06
-4.27016e-06
-4.27023e-06
-4.2703e-06
-4.27038e-06
-4.27046e-06
-4.27055e-06
-4.27064e-06
-4.27074e-06
-4.27084e-06
-4.27096e-06
-4.27108e-06
-4.2712e-06
-4.27134e-06
-4.27148e-06
-4.27164e-06
-4.2718e-06
-4.27197e-06
-4.27216e-06
-4.27235e-06
-4.27256e-06
-4.27278e-06
-4.27302e-06
-4.27327e-06
-4.27354e-06
-4.27382e-06
-4.27412e-06
-4.27443e-06
-4.27477e-06
-4.27513e-06
-4.27551e-06
-4.27591e-06
-4.27633e-06
-4.27678e-06
-4.27725e-06
-4.27776e-06
-4.27829e-06
-4.27885e-06
-4.27945e-06
-4.28008e-06
-4.28074e-06
-4.28144e-06
-4.28219e-06
-4.28297e-06
-4.2838e-06
-4.28467e-06
-4.28559e-06
-4.28656e-06
-4.28758e-06
-4.28866e-06
-4.2898e-06
-4.29099e-06
-4.29225e-06
-4.29358e-06
-4.29497e-06
-4.29644e-06
-4.29798e-06
-4.29961e-06
-4.30131e-06
-4.3031e-06
-4.30499e-06
-4.30696e-06
-4.30904e-06
-4.31121e-06
-4.3135e-06
-4.31589e-06
-4.3184e-06
-4.32104e-06
-4.32379e-06
-4.32668e-06
-4.32971e-06
-4.33287e-06
-4.33619e-06
-4.33965e-06
-4.34328e-06
-4.34707e-06
-4.35103e-06
-4.35517e-06
-4.35949e-06
-4.36401e-06
-4.36872e-06
-4.37363e-06
-4.37876e-06
-4.38411e-06
-4.38969e-06
-4.39551e-06
-4.40157e-06
-4.40788e-06
-4.41445e-06
-4.42129e-06
-4.42841e-06
-4.43582e-06
-4.44352e-06
-4.45153e-06
-4.45986e-06
-4.46851e-06
-4.4775e-06
-4.48683e-06
-4.49652e-06
-4.50658e-06
-4.51702e-06
-4.52784e-06
-4.53907e-06
-4.5507e-06
-4.56276e-06
-4.57526e-06
-4.5882e-06
-4.6016e-06
-4.61547e-06
-4.62983e-06
-4.64468e-06
-4.66004e-06
-4.67592e-06
-4.69234e-06
-4.70931e-06
-4.72684e-06
-4.74495e-06
-4.76364e-06
-4.78294e-06
-4.80286e-06
-4.8234e-06
-4.8446e-06
-4.86645e-06
-4.88899e-06
-4.91221e-06
-4.93613e-06
-4.96078e-06
-4.98616e-06
-5.0123e-06
-5.0392e-06
-5.06688e-06
-5.09536e-06
-5.12465e-06
-5.15478e-06
-5.18574e-06
-5.21757e-06
-5.25028e-06
-5.28388e-06
-5.3184e-06
-5.35383e-06
-5.39022e-06
-5.42756e-06
-5.46588e-06
-5.5052e-06
-5.54553e-06
-5.58689e-06
-5.62929e-06
-5.67276e-06
-5.71731e-06
-5.76296e-06
-5.80973e-06
-5.85763e-06
-5.90668e-06
-5.95691e-06
-6.00833e-06
-6.06095e-06
-6.1148e-06
-6.1699e-06
-6.22625e-06
-6.2839e-06
-6.34284e-06
-6.40311e-06
-6.46472e-06
-6.52769e-06
-6.59204e-06
-6.6578e-06
-6.72497e-06
-6.7936e-06
-6.86368e-06
-6.93525e-06
-7.00833e-06
-7.08294e-06
-7.1591e-06
-7.23683e-06
-7.31616e-06
-7.39712e-06
-7.47971e-06
-7.56398e-06
-7.64995e-06
-7.73763e-06
-7.82707e-06
-7.91827e-06
-8.01128e-06
-8.10612e-06
-8.20282e-06
-8.30141e-06
-8.40192e-06
-8.50438e-06
-8.60882e-06
-8.71527e-06
-8.82379e-06
-8.93439e-06
-9.04712e-06
-9.16202e-06
-9.27912e-06
-9.39848e-06
-9.52014e-06
-9.64415e-06
-9.77055e-06
-9.89942e-06
-1.00308e-05
-1.01648e-05
-1.03014e-05
-1.04407e-05
-1.05829e-05
-1.07279e-05
-1.0876e-05
-1.10247e-05
-1.11765e-05
-1.13314e-05
-1.14896e-05
-1.1651e-05
-1.18157e-05
-1.19837e-05
-1.21551e-05
-1.233e-05
-1.25084e-05
-1.26903e-05
-1.28758e-05
-1.30649e-05
-1.32577e-05
-1.34542e-05
-1.36544e-05
-1.38583e-05
-1.4066e-05
-1.42773e-05
-1.44922e-05
-1.47106e-05
-1.49324e-05
-1.51573e-05
-1.53851e-05
-1.56155e-05
-1.58481e-05
-1.60822e-05
-1.63174e-05
-1.65526e-05
-1.6787e-05
-1.70194e-05
-1.72483e-05
-1.74719e-05
-1.76881e-05
-1.78946e-05
-1.80883e-05
-1.82658e-05
-1.84231e-05
-1.85555e-05
-1.86579e-05
-1.87241e-05
)
;

boundaryField
{
    fixedWall
    {
        type            calculated;
        value           uniform 0;
    }
    outlet
    {
        type            calculated;
        value           uniform -1.87477e-05;
    }
    defaultFaces
    {
        type            empty;
    }
}


// ************************************************************************* //
