/*--------------------------------*- C++ -*----------------------------------*\
| =========                 |                                                 |
| \\      /  F ield         | OpenFOAM: The Open Source CFD Toolbox           |
|  \\    /   O peration     | Version:  2406                                  |
|   \\  /    A nd           | Website:  www.openfoam.com                      |
|    \\/     M anipulation  |                                                 |
\*---------------------------------------------------------------------------*/
FoamFile
{
    version     2.0;
    format      ascii;
    arch        "LSB;label=32;scalar=64";
    class       volScalarField;
    location    "13.6";
    object      Qdot;
}
// * * * * * * * * * * * * * * * * * * * * * * * * * * * * * * * * * * * * * //

dimensions      [1 -1 -3 0 0 0 0];

internalField   nonuniform List<scalar> 
1000
(
-6.70752e-19
-4.98536e-14
-1.37169e-16
-1.00954e-15
3.80442e-09
1.14133e-08
4.04767e-08
1.28509e-07
3.506e-07
8.63949e-07
1.93943e-06
4.03335e-06
7.86691e-06
1.44614e-05
2.52858e-05
4.22469e-05
6.78427e-05
0.000105141
0.000157822
0.000230176
0.000327058
0.000453847
0.000616323
0.000820595
0.00107292
0.0013796
0.00174681
0.00218041
0.00268584
0.00326794
0.00393082
0.00467778
0.00551114
0.00643224
0.00744134
0.00853763
0.0097192
0.0109831
0.0123253
0.0137409
0.015224
0.0167681
0.0183659
0.0200095
0.0216906
0.0234007
0.025131
0.0268725
0.0286165
0.0303543
0.0320775
0.0337778
0.0354478
0.0370801
0.0386681
0.0402057
0.0416875
0.0431086
0.0444649
0.0457529
0.0469696
0.0481129
0.0491812
0.0501734
0.0510891
0.0519283
0.0526914
0.0533796
0.0539942
0.0545368
0.0550096
0.0554147
0.0557549
0.0560327
0.0562511
0.0564131
0.0565217
0.0565801
0.0565915
0.056559
0.0564857
0.0563749
0.0562295
0.0560525
0.0558469
0.0556153
0.0553605
0.0550851
0.0547915
0.0544821
0.0541591
0.0538245
0.0534804
0.0531286
0.0527707
0.0524085
0.0520433
0.0516766
0.0513096
0.0509434
0.0505791
0.0502177
0.04986
0.0495068
0.0491588
0.0488166
0.0484808
0.0481518
0.04783
0.0475159
0.0472097
0.0469116
0.0466219
0.0463407
0.0460682
0.0458043
0.0455493
0.045303
0.0450656
0.0448368
0.0446168
0.0444054
0.0442026
0.0440081
0.043822
0.043644
0.0434741
0.043312
0.0431576
0.0430107
0.0428713
0.0427389
0.0426136
0.0424951
0.0423832
0.0422778
0.0421786
0.0420854
0.0419981
0.0419165
0.0418404
0.0417696
0.0417039
0.0416432
0.0415873
0.041536
0.0414891
0.0414465
0.041408
0.0413734
0.0413427
0.0413156
0.041292
0.0412717
0.0412547
0.0412407
0.0412298
0.0412216
0.0412162
0.0412133
0.0412129
0.0412149
0.0412192
0.0412256
0.041234
0.0412445
0.0412567
0.0412708
0.0412866
0.041304
0.0413229
0.0413433
0.0413651
0.0413882
0.0414126
0.0414381
0.0414648
0.0414926
0.0415214
0.0415511
0.0415818
0.0416133
0.0416457
0.0416788
0.0417125
0.0417471
0.0417824
0.0418181
0.0418546
0.0418915
0.041929
0.0419671
0.0420055
0.0420443
0.0420837
0.0421235
0.0421636
0.0422041
0.042245
0.0422861
0.0423276
0.0423693
0.0424112
0.0424535
0.0424959
0.0425386
0.0425815
0.0426246
0.0426679
0.0427113
0.0427549
0.0427987
0.0428426
0.0428867
0.0429309
0.0429752
0.0430197
0.0430641
0.0431088
0.0431536
0.0431985
0.0432435
0.0432884
0.0433336
0.0433789
0.043424
0.0434694
0.0435149
0.0435604
0.043606
0.0436517
0.0436974
0.043743
0.0437889
0.0438348
0.0438808
0.0439268
0.0439729
0.044019
0.0440652
0.0441114
0.0441577
0.0442041
0.0442505
0.0442968
0.0443433
0.0443899
0.0444365
0.0444832
0.0445297
0.0445765
0.0446233
0.0446701
0.044717
0.044764
0.044811
0.044858
0.0449051
0.0449523
0.0449995
0.0450467
0.0450941
0.0451414
0.0451888
0.0452363
0.0452838
0.0453314
0.0453789
0.0454266
0.0454743
0.0455221
0.04557
0.0456179
0.0456659
0.0457139
0.045762
0.0458101
0.0458583
0.0459065
0.0459548
0.0460032
0.0460516
0.0461001
0.0461486
0.0461972
0.0462459
0.0462946
0.0463434
0.0463923
0.0464412
0.04649
0.046539
0.0465882
0.0466373
0.0466866
0.0467359
0.0467852
0.0468347
0.0468842
0.0469337
0.0469834
0.047033
0.0470828
0.0471326
0.0471826
0.0472325
0.0472826
0.0473327
0.0473829
0.0474331
0.0474835
0.0475339
0.0475844
0.0476347
0.0476854
0.0477361
0.0477869
0.0478377
0.0478886
0.0479396
0.0479907
0.0480418
0.0480931
0.0481441
0.0481955
0.0482469
0.0482985
0.0483501
0.0484017
0.0484535
0.0485053
0.0485572
0.0486092
0.0486613
0.0487134
0.0487656
0.0488179
0.0488703
0.0489228
0.0489753
0.0490279
0.0490806
0.0491334
0.0491863
0.0492392
0.0492923
0.0493454
0.0493986
0.0494519
0.0495053
0.0495587
0.0496123
0.0496659
0.0497196
0.0497734
0.0498273
0.0498813
0.0499353
0.0499895
0.0500437
0.050098
0.0501524
0.0502069
0.0502615
0.0503162
0.050371
0.0504259
0.0504807
0.0505357
0.0505909
0.0506461
0.0507014
0.0507569
0.0508124
0.0508679
0.0509236
0.0509794
0.0510352
0.0510912
0.0511472
0.0512033
0.0512596
0.0513159
0.0513723
0.0514288
0.0514854
0.0515421
0.0515989
0.0516558
0.0517128
0.0517699
0.0518271
0.0518844
0.0519416
0.0519991
0.0520567
0.0521143
0.0521721
0.0522299
0.0522879
0.052346
0.0524041
0.0524623
0.0525207
0.0525791
0.0526377
0.0526963
0.052755
0.0528139
0.0528728
0.0529318
0.052991
0.0530502
0.0531095
0.0531689
0.0532284
0.053288
0.0533478
0.0534076
0.0534675
0.0535276
0.0535877
0.0536479
0.0537083
0.0537687
0.0538293
0.0538899
0.0539506
0.0540115
0.0540724
0.0541335
0.0541946
0.0542559
0.0543173
0.0543787
0.0544403
0.054502
0.0545636
0.0546255
0.0546875
0.0547496
0.0548118
0.0548741
0.0549366
0.0549991
0.0550617
0.0551244
0.0551873
0.0552502
0.0553133
0.0553764
0.0554397
0.0555031
0.0555666
0.0556302
0.0556939
0.0557577
0.0558214
0.0558855
0.0559496
0.0560139
0.0560783
0.0561427
0.0562073
0.056272
0.0563368
0.0564018
0.0564668
0.0565319
0.0565972
0.0566626
0.056728
0.0567936
0.0568593
0.0569252
0.0569911
0.0570571
0.0571233
0.0571896
0.057256
0.0573225
0.0573891
0.0574559
0.0575227
0.0575897
0.0576568
0.057724
0.0577913
0.0578588
0.0579263
0.057994
0.0580618
0.0581297
0.0581978
0.0582659
0.0583342
0.0584026
0.0584711
0.0585398
0.0586085
0.0586774
0.0587464
0.0588156
0.0588848
0.0589542
0.0590237
0.0590933
0.059163
0.0592329
0.0593029
0.059373
0.0594432
0.0595136
0.0595841
0.0596547
0.0597254
0.0597963
0.0598673
0.0599384
0.0600096
0.060081
0.0601525
0.0602241
0.0602958
0.0603677
0.0604397
0.0605118
0.0605841
0.0606565
0.060729
0.0608016
0.0608744
0.0609473
0.0610204
0.0610935
0.0611668
0.0612403
0.0613139
0.0613876
0.0614614
0.0615352
0.0616094
0.0616836
0.061758
0.0618325
0.0619072
0.061982
0.0620569
0.062132
0.0622069
0.0622822
0.0623577
0.0624333
0.062509
0.0625849
0.0626609
0.062737
0.0628133
0.0628897
0.0629662
0.0630429
0.0631197
0.0631967
0.0632738
0.063351
0.0634284
0.0635059
0.0635836
0.0636614
0.0637393
0.0638174
0.0638956
0.063974
0.0640525
0.0641312
0.06421
0.064289
0.0643681
0.0644473
0.0645267
0.0646062
0.0646859
0.0647657
0.0648457
0.0649258
0.0650061
0.0650866
0.0651671
0.0652479
0.0653288
0.0654098
0.065491
0.0655723
0.0656538
0.0657354
0.0658172
0.0658992
0.0659813
0.0660635
0.0661459
0.0662285
0.0663112
0.0663941
0.0664771
0.0665603
0.0666436
0.0667271
0.0668108
0.0668946
0.0669786
0.0670627
0.067147
0.0672314
0.0673161
0.0674008
0.0674858
0.0675709
0.0676561
0.0677415
0.0678271
0.0679129
0.0679988
0.0680848
0.0681711
0.0682575
0.068344
0.0684308
0.0685177
0.0686047
0.068692
0.0687794
0.0688669
0.0689546
0.0690425
0.0691306
0.0692188
0.0693073
0.0693958
0.0694846
0.0695735
0.0696626
0.0697518
0.0698413
0.0699309
0.0700207
0.0701106
0.0702007
0.070291
0.0703815
0.0704721
0.070563
0.070654
0.0707451
0.0708365
0.070928
0.0710197
0.0711116
0.0712036
0.0712959
0.0713883
0.0714809
0.0715737
0.0716666
0.0717597
0.0718531
0.0719465
0.0720402
0.0721341
0.0722281
0.0723223
0.0724167
0.0725113
0.0726061
0.0727011
0.0727962
0.0728915
0.0729871
0.0730828
0.0731787
0.0732748
0.073371
0.0734675
0.0735642
0.073661
0.0737579
0.0738547
0.0739521
0.0740496
0.0741474
0.0742453
0.0743434
0.0744418
0.0745403
0.074639
0.0747379
0.074837
0.0749363
0.0750358
0.0751355
0.0752354
0.0753355
0.0754358
0.0755363
0.075637
0.0757377
0.0758384
0.0759396
0.0760411
0.0761427
0.0762446
0.0763466
0.0764489
0.0765513
0.076654
0.0767569
0.0768599
0.0769632
0.0770667
0.0771704
0.0772743
0.0773784
0.0774827
0.0775872
0.0776919
0.0777968
0.077902
0.0780073
0.0781129
0.0782187
0.0783247
0.0784309
0.0785373
0.0786439
0.0787508
0.0788578
0.0789651
0.0790726
0.0791803
0.0792882
0.0793963
0.0795047
0.0796132
0.079722
0.079831
0.0799402
0.0800497
0.0801593
0.0802692
0.0803793
0.0804896
0.0806001
0.0807108
0.0808218
0.0809329
0.0810443
0.0811559
0.0812678
0.0813798
0.0814921
0.0816045
0.0817172
0.0818302
0.0819433
0.0820567
0.0821703
0.0822841
0.0823981
0.0825124
0.0826268
0.0827415
0.0828565
0.0829717
0.0830871
0.0832027
0.0833186
0.0834348
0.0835512
0.0836678
0.0837847
0.0839019
0.0840193
0.084137
0.0842551
0.0843734
0.084492
0.0846109
0.0847302
0.0848497
0.0849697
0.08509
0.0852108
0.0853319
0.0854534
0.0855755
0.0856979
0.0858209
0.0859445
0.0860686
0.0861933
0.0863186
0.0864447
0.0865714
0.0866989
0.0868273
0.0869565
0.0870867
0.0872179
0.0873502
0.0874836
0.0876183
0.0877542
0.0878916
0.0880306
0.0881711
0.0883134
0.0884576
0.0886038
0.0887521
0.0889027
0.0890557
0.0892114
0.0893699
0.0895314
0.0896961
0.0898642
0.090036
0.0902117
0.0903916
0.0905759
0.090765
0.0909592
0.0911588
0.0913641
0.0915755
0.0917935
0.0920183
0.0922505
0.0924906
0.0927389
0.092996
0.0932625
0.0935388
0.0938257
0.0941236
0.0944332
0.0947553
0.0950905
0.0954395
0.0958031
0.0961821
0.0965774
0.0969898
0.0974202
0.0978696
0.0983389
0.0988292
0.0993415
0.0998768
0.100436
0.101021
0.101633
0.102272
0.10294
0.103639
0.104369
0.105132
0.10593
0.106763
0.107634
0.108543
0.109493
0.110484
0.111518
0.112597
0.113722
0.114894
0.116116
0.117387
0.118711
0.120088
0.121519
0.123005
0.124549
0.12615
0.127809
0.129528
0.131306
0.133144
0.135043
0.137002
0.139021
0.141098
0.143234
0.145427
0.147675
0.149976
0.152327
0.154725
0.157166
0.159646
0.162161
0.164703
0.167268
0.169847
0.172433
0.175016
0.177588
0.180138
0.182653
0.185122
0.18753
0.189865
0.192109
0.194247
0.196261
0.198133
0.199845
0.201377
0.202709
0.20382
0.20469
0.205297
0.205621
0.205641
0.205337
0.204691
0.203684
0.202301
0.200526
0.198347
0.195754
0.192741
0.189303
0.185439
0.181155
0.176456
0.171355
0.165868
0.160017
0.153825
0.147324
0.140548
0.133535
0.126327
0.118969
0.111511
0.104002
0.0964935
0.0890382
0.0816878
0.0744929
0.067502
0.0607606
0.0543102
0.0481875
0.0424242
0.0370455
0.0320707
0.0275409
0.023438
0.0197153
0.0164071
0.0134999
0.0109748
0.00880881
0.00697491
0.00544359
0.00418357
0.00316285
0.0023496
0.00171303
0.00122408
0.00085605
0.000584979
0.000389914
0.000253019
0.000159503
9.74574e-05
5.75647e-05
3.27762e-05
1.79343e-05
9.39588e-06
4.69588e-06
2.22855e-06
9.99646e-07
4.21816e-07
1.6587e-07
6.0754e-08
2.04098e-08
7.13329e-09
1.90221e-09
6.6797e-10
-4.30294e-10
-3.6542e-17
-5.72934e-18
-7.26648e-19
-6.2883e-20
-6.987e-21
-3.4935e-21
0
)
;

boundaryField
{
    fixedWall
    {
        type            calculated;
        value           uniform 0;
    }
    outlet
    {
        type            calculated;
        value           uniform 0;
    }
    defaultFaces
    {
        type            empty;
    }
}


// ************************************************************************* //
