/*--------------------------------*- C++ -*----------------------------------*\
| =========                 |                                                 |
| \\      /  F ield         | OpenFOAM: The Open Source CFD Toolbox           |
|  \\    /   O peration     | Version:  2406                                  |
|   \\  /    A nd           | Website:  www.openfoam.com                      |
|    \\/     M anipulation  |                                                 |
\*---------------------------------------------------------------------------*/
FoamFile
{
    version     2.0;
    format      ascii;
    arch        "LSB;label=32;scalar=64";
    class       volScalarField;
    location    "1.3";
    object      CO2;
}
// * * * * * * * * * * * * * * * * * * * * * * * * * * * * * * * * * * * * * //

dimensions      [0 0 0 0 0 0 0];

internalField   nonuniform List<scalar> 
1000
(
0.0709257
0.0709257
0.0709257
0.0709257
0.0709257
0.0709256
0.0709256
0.0709256
0.0709256
0.0709256
0.0709256
0.0709256
0.0709256
0.0709256
0.0709256
0.0709256
0.0709256
0.0709256
0.0709256
0.0709256
0.0709256
0.0709257
0.0709257
0.0709257
0.0709257
0.0709257
0.0709257
0.0709257
0.0709257
0.0709257
0.0709257
0.0709257
0.0709257
0.0709257
0.0709257
0.0709257
0.0709257
0.0709256
0.0709256
0.0709256
0.0709256
0.0709256
0.0709256
0.0709256
0.0709256
0.0709256
0.0709255
0.0709255
0.0709255
0.0709255
0.0709255
0.0709255
0.0709255
0.0709255
0.0709254
0.0709254
0.0709254
0.0709254
0.0709254
0.0709254
0.0709254
0.0709253
0.0709253
0.0709253
0.0709253
0.0709253
0.0709253
0.0709253
0.0709252
0.0709252
0.0709252
0.0709252
0.0709252
0.0709252
0.0709252
0.0709251
0.0709251
0.0709251
0.0709251
0.0709251
0.0709251
0.070925
0.070925
0.070925
0.070925
0.070925
0.070925
0.0709249
0.0709249
0.0709249
0.0709249
0.0709249
0.0709248
0.0709248
0.0709248
0.0709248
0.0709247
0.0709247
0.0709247
0.0709247
0.0709247
0.0709246
0.0709246
0.0709246
0.0709246
0.0709245
0.0709245
0.0709245
0.0709244
0.0709244
0.0709244
0.0709243
0.0709243
0.0709243
0.0709242
0.0709242
0.0709242
0.0709241
0.0709241
0.0709241
0.070924
0.070924
0.0709239
0.0709239
0.0709239
0.0709238
0.0709238
0.0709237
0.0709237
0.0709236
0.0709236
0.0709235
0.0709234
0.0709234
0.0709233
0.0709233
0.0709232
0.0709231
0.0709231
0.070923
0.0709229
0.0709228
0.0709228
0.0709227
0.0709226
0.0709225
0.0709224
0.0709223
0.0709222
0.0709221
0.070922
0.0709219
0.0709217
0.0709216
0.0709215
0.0709213
0.0709212
0.070921
0.0709209
0.0709207
0.0709205
0.0709203
0.0709201
0.0709198
0.0709196
0.0709193
0.070919
0.0709187
0.0709184
0.070918
0.0709177
0.0709172
0.0709168
0.0709163
0.0709157
0.0709151
0.0709144
0.0709137
0.0709128
0.0709118
0.0709107
0.0709095
0.070908
0.0709064
0.0709044
0.070902
0.0708992
0.0708956
0.0708912
0.0708856
0.0708781
0.070868
0.0708536
0.0708315
0.0707944
0.0707254
0.0705814
0.0702208
0.0690673
0.0644751
0.0325165
0.0155854
0.00754089
0.00368025
0.00180844
0.000893116
0.000442607
0.000219854
0.000109368
5.44542e-05
2.71251e-05
1.35138e-05
6.73202e-06
3.35278e-06
1.66919e-06
8.30634e-07
4.13149e-07
2.054e-07
1.02074e-07
5.07147e-08
2.51969e-08
1.25261e-08
6.23778e-09
3.12241e-09
1.56271e-09
8.07329e-10
4.3386e-10
2.69517e-10
1.90754e-10
1.2293e-10
8.89136e-11
6.98451e-11
6.30382e-11
5.87411e-11
5.64746e-11
5.47837e-11
5.38491e-11
5.33823e-11
5.30339e-11
5.28642e-11
5.27383e-11
5.26784e-11
5.26388e-11
5.26203e-11
5.26117e-11
5.26043e-11
5.25999e-11
5.25984e-11
5.25975e-11
5.25968e-11
5.25965e-11
5.25963e-11
5.25962e-11
5.25962e-11
5.25962e-11
5.25962e-11
5.25962e-11
5.25963e-11
5.25963e-11
5.25963e-11
5.25964e-11
5.25964e-11
5.25965e-11
5.25965e-11
5.25965e-11
5.25966e-11
5.25966e-11
5.25967e-11
5.25967e-11
5.25967e-11
5.25968e-11
5.25968e-11
5.25969e-11
5.25969e-11
5.2597e-11
5.2597e-11
5.25971e-11
5.25971e-11
5.25971e-11
5.25972e-11
5.25972e-11
5.25973e-11
5.25973e-11
5.25973e-11
5.25974e-11
5.25974e-11
5.25975e-11
5.25975e-11
5.25976e-11
5.25976e-11
5.25976e-11
5.25977e-11
5.25977e-11
5.25978e-11
5.25978e-11
5.25978e-11
5.25979e-11
5.25979e-11
5.2598e-11
5.2598e-11
5.25981e-11
5.25981e-11
5.25981e-11
5.25982e-11
5.25982e-11
5.25983e-11
5.25983e-11
5.25983e-11
5.25984e-11
5.25984e-11
5.25984e-11
5.25985e-11
5.25985e-11
5.25986e-11
5.25986e-11
5.25987e-11
5.25987e-11
5.25987e-11
5.25988e-11
5.25988e-11
5.25989e-11
5.25989e-11
5.25989e-11
5.2599e-11
5.2599e-11
5.25991e-11
5.25991e-11
5.25991e-11
5.25992e-11
5.25992e-11
5.25993e-11
5.25993e-11
5.25993e-11
5.25994e-11
5.25994e-11
5.25995e-11
5.25995e-11
5.25995e-11
5.25996e-11
5.25996e-11
5.25997e-11
5.25997e-11
5.25997e-11
5.25998e-11
5.25998e-11
5.25999e-11
5.25999e-11
5.25999e-11
5.26e-11
5.26e-11
5.26001e-11
5.26001e-11
5.26001e-11
5.26002e-11
5.26002e-11
5.26003e-11
5.26003e-11
5.26003e-11
5.26004e-11
5.26004e-11
5.26005e-11
5.26005e-11
5.26005e-11
5.26006e-11
5.26006e-11
5.26006e-11
5.26007e-11
5.26007e-11
5.26008e-11
5.26008e-11
5.26008e-11
5.26009e-11
5.26009e-11
5.2601e-11
5.2601e-11
5.2601e-11
5.26011e-11
5.26011e-11
5.26012e-11
5.26012e-11
5.26012e-11
5.26013e-11
5.26013e-11
5.26014e-11
5.26014e-11
5.26014e-11
5.26015e-11
5.26015e-11
5.26016e-11
5.26016e-11
5.26017e-11
5.26017e-11
5.26017e-11
5.26018e-11
5.26018e-11
5.26018e-11
5.26019e-11
5.26019e-11
5.2602e-11
5.2602e-11
5.2602e-11
5.26021e-11
5.26021e-11
5.26022e-11
5.26022e-11
5.26023e-11
5.26023e-11
5.26023e-11
5.26024e-11
5.26024e-11
5.26025e-11
5.26025e-11
5.26025e-11
5.26026e-11
5.26026e-11
5.26027e-11
5.26027e-11
5.26027e-11
5.26028e-11
5.26028e-11
5.26029e-11
5.26029e-11
5.2603e-11
5.2603e-11
5.2603e-11
5.26031e-11
5.26031e-11
5.26032e-11
5.26032e-11
5.26033e-11
5.26033e-11
5.26033e-11
5.26034e-11
5.26034e-11
5.26035e-11
5.26035e-11
5.26035e-11
5.26036e-11
5.26036e-11
5.26037e-11
5.26037e-11
5.26038e-11
5.26038e-11
5.26039e-11
5.26039e-11
5.2604e-11
5.2604e-11
5.2604e-11
5.26041e-11
5.26041e-11
5.26042e-11
5.26042e-11
5.26043e-11
5.26043e-11
5.26044e-11
5.26044e-11
5.26044e-11
5.26045e-11
5.26045e-11
5.26046e-11
5.26046e-11
5.26047e-11
5.26047e-11
5.26048e-11
5.26048e-11
5.26049e-11
5.26049e-11
5.26049e-11
5.2605e-11
5.2605e-11
5.26051e-11
5.26051e-11
5.26052e-11
5.26052e-11
5.26053e-11
5.26053e-11
5.26054e-11
5.26054e-11
5.26054e-11
5.26055e-11
5.26055e-11
5.26056e-11
5.26056e-11
5.26057e-11
5.26057e-11
5.26058e-11
5.26058e-11
5.26059e-11
5.26059e-11
5.2606e-11
5.2606e-11
5.26061e-11
5.26061e-11
5.26062e-11
5.26062e-11
5.26063e-11
5.26063e-11
5.26063e-11
5.26064e-11
5.26064e-11
5.26065e-11
5.26065e-11
5.26066e-11
5.26066e-11
5.26067e-11
5.26067e-11
5.26068e-11
5.26068e-11
5.26069e-11
5.26069e-11
5.2607e-11
5.2607e-11
5.26071e-11
5.26071e-11
5.26072e-11
5.26072e-11
5.26073e-11
5.26073e-11
5.26074e-11
5.26074e-11
5.26075e-11
5.26075e-11
5.26076e-11
5.26076e-11
5.26077e-11
5.26077e-11
5.26078e-11
5.26078e-11
5.26079e-11
5.26079e-11
5.2608e-11
5.2608e-11
5.26081e-11
5.26081e-11
5.26082e-11
5.26082e-11
5.26083e-11
5.26083e-11
5.26084e-11
5.26084e-11
5.26085e-11
5.26085e-11
5.26086e-11
5.26086e-11
5.26087e-11
5.26088e-11
5.26088e-11
5.26088e-11
5.26089e-11
5.2609e-11
5.2609e-11
5.2609e-11
5.26091e-11
5.26092e-11
5.26092e-11
5.26093e-11
5.26093e-11
5.26094e-11
5.26094e-11
5.26095e-11
5.26095e-11
5.26096e-11
5.26096e-11
5.26097e-11
5.26097e-11
5.26098e-11
5.26098e-11
5.26099e-11
5.26099e-11
5.261e-11
5.261e-11
5.26101e-11
5.26101e-11
5.26102e-11
5.26103e-11
5.26103e-11
5.26104e-11
5.26104e-11
5.26105e-11
5.26105e-11
5.26106e-11
5.26106e-11
5.26107e-11
5.26107e-11
5.26108e-11
5.26108e-11
5.26109e-11
5.26109e-11
5.2611e-11
5.2611e-11
5.26111e-11
5.26112e-11
5.26112e-11
5.26113e-11
5.26113e-11
5.26114e-11
5.26114e-11
5.26115e-11
5.26115e-11
5.26116e-11
5.26117e-11
5.26117e-11
5.26118e-11
5.26118e-11
5.26119e-11
5.26119e-11
5.2612e-11
5.2612e-11
5.26121e-11
5.26121e-11
5.26122e-11
5.26122e-11
5.26123e-11
5.26124e-11
5.26124e-11
5.26125e-11
5.26125e-11
5.26126e-11
5.26126e-11
5.26127e-11
5.26127e-11
5.26128e-11
5.26128e-11
5.26129e-11
5.26129e-11
5.2613e-11
5.26131e-11
5.26131e-11
5.26132e-11
5.26132e-11
5.26133e-11
5.26133e-11
5.26134e-11
5.26134e-11
5.26135e-11
5.26135e-11
5.26136e-11
5.26137e-11
5.26137e-11
5.26138e-11
5.26138e-11
5.26139e-11
5.2614e-11
5.2614e-11
5.26141e-11
5.26141e-11
5.26142e-11
5.26142e-11
5.26143e-11
5.26143e-11
5.26144e-11
5.26144e-11
5.26145e-11
5.26146e-11
5.26146e-11
5.26147e-11
5.26147e-11
5.26148e-11
5.26148e-11
5.26149e-11
5.26149e-11
5.2615e-11
5.26151e-11
5.26151e-11
5.26152e-11
5.26152e-11
5.26153e-11
5.26153e-11
5.26154e-11
5.26155e-11
5.26155e-11
5.26156e-11
5.26156e-11
5.26157e-11
5.26157e-11
5.26158e-11
5.26159e-11
5.26159e-11
5.2616e-11
5.2616e-11
5.26161e-11
5.26161e-11
5.26162e-11
5.26163e-11
5.26163e-11
5.26163e-11
5.26164e-11
5.26165e-11
5.26165e-11
5.26166e-11
5.26167e-11
5.26167e-11
5.26168e-11
5.26168e-11
5.26169e-11
5.2617e-11
5.2617e-11
5.26171e-11
5.26171e-11
5.26172e-11
5.26172e-11
5.26173e-11
5.26173e-11
5.26174e-11
5.26175e-11
5.26175e-11
5.26176e-11
5.26177e-11
5.26177e-11
5.26178e-11
5.26178e-11
5.26179e-11
5.26179e-11
5.2618e-11
5.26181e-11
5.26181e-11
5.26182e-11
5.26182e-11
5.26183e-11
5.26183e-11
5.26184e-11
5.26185e-11
5.26185e-11
5.26186e-11
5.26186e-11
5.26187e-11
5.26187e-11
5.26188e-11
5.26189e-11
5.26189e-11
5.2619e-11
5.2619e-11
5.26191e-11
5.26192e-11
5.26192e-11
5.26193e-11
5.26193e-11
5.26194e-11
5.26194e-11
5.26195e-11
5.26196e-11
5.26196e-11
5.26197e-11
5.26197e-11
5.26198e-11
5.26198e-11
5.26199e-11
5.262e-11
5.262e-11
5.26201e-11
5.26202e-11
5.26202e-11
5.26203e-11
5.26203e-11
5.26204e-11
5.26205e-11
5.26205e-11
5.26206e-11
5.26206e-11
5.26207e-11
5.26208e-11
5.26208e-11
5.26209e-11
5.26209e-11
5.2621e-11
5.26211e-11
5.26211e-11
5.26212e-11
5.26213e-11
5.26213e-11
5.26214e-11
5.26214e-11
5.26215e-11
5.26216e-11
5.26216e-11
5.26217e-11
5.26217e-11
5.26218e-11
5.26219e-11
5.26219e-11
5.2622e-11
5.2622e-11
5.26221e-11
5.26222e-11
5.26222e-11
5.26223e-11
5.26223e-11
5.26224e-11
5.26225e-11
5.26225e-11
5.26226e-11
5.26227e-11
5.26227e-11
5.26228e-11
5.26228e-11
5.26229e-11
5.2623e-11
5.2623e-11
5.26231e-11
5.26231e-11
5.26232e-11
5.26233e-11
5.26233e-11
5.26234e-11
5.26235e-11
5.26235e-11
5.26236e-11
5.26237e-11
5.26237e-11
5.26238e-11
5.26238e-11
5.26239e-11
5.2624e-11
5.2624e-11
5.26241e-11
5.26241e-11
5.26242e-11
5.26243e-11
5.26243e-11
5.26244e-11
5.26245e-11
5.26245e-11
5.26246e-11
5.26247e-11
5.26247e-11
5.26248e-11
5.26248e-11
5.26249e-11
5.2625e-11
5.2625e-11
5.26251e-11
5.26252e-11
5.26252e-11
5.26253e-11
5.26253e-11
5.26254e-11
5.26255e-11
5.26255e-11
5.26256e-11
5.26257e-11
5.26257e-11
5.26258e-11
5.26259e-11
5.26259e-11
5.2626e-11
5.26261e-11
5.26261e-11
5.26262e-11
5.26262e-11
5.26263e-11
5.26264e-11
5.26265e-11
5.26265e-11
5.26266e-11
5.26267e-11
5.26267e-11
5.26268e-11
5.26268e-11
5.26269e-11
5.2627e-11
5.2627e-11
5.26271e-11
5.26272e-11
5.26272e-11
5.26273e-11
5.26273e-11
5.26274e-11
5.26275e-11
5.26275e-11
5.26276e-11
5.26277e-11
5.26277e-11
5.26278e-11
5.26279e-11
5.26279e-11
5.2628e-11
5.26281e-11
5.26281e-11
5.26282e-11
5.26283e-11
5.26284e-11
5.26284e-11
5.26285e-11
5.26286e-11
5.26286e-11
5.26287e-11
5.26288e-11
5.26288e-11
5.26289e-11
5.2629e-11
5.2629e-11
5.26291e-11
5.26292e-11
5.26292e-11
5.26293e-11
5.26294e-11
5.26294e-11
5.26295e-11
5.26296e-11
5.26296e-11
5.26297e-11
5.26298e-11
5.26298e-11
5.26299e-11
5.263e-11
5.263e-11
5.26301e-11
5.26302e-11
5.26302e-11
5.26303e-11
5.26304e-11
5.26304e-11
5.26305e-11
5.26306e-11
5.26306e-11
5.26307e-11
5.26308e-11
5.26308e-11
5.26309e-11
5.2631e-11
5.26311e-11
5.26311e-11
5.26312e-11
5.26313e-11
5.26313e-11
5.26314e-11
5.26315e-11
5.26315e-11
5.26316e-11
5.26317e-11
5.26318e-11
5.26318e-11
5.26319e-11
5.2632e-11
5.2632e-11
5.26321e-11
5.26322e-11
5.26322e-11
5.26323e-11
5.26324e-11
5.26324e-11
5.26325e-11
5.26326e-11
5.26326e-11
5.26327e-11
5.26328e-11
5.26328e-11
5.26329e-11
5.2633e-11
5.26331e-11
5.26331e-11
5.26332e-11
5.26333e-11
5.26334e-11
5.26334e-11
5.26335e-11
5.26336e-11
5.26336e-11
5.26337e-11
5.26338e-11
5.26338e-11
5.26339e-11
5.2634e-11
5.26341e-11
5.26341e-11
5.26342e-11
5.26343e-11
5.26343e-11
5.26344e-11
5.26345e-11
5.26346e-11
5.26346e-11
5.26347e-11
5.26348e-11
5.26348e-11
5.26349e-11
5.2635e-11
5.2635e-11
5.26351e-11
5.26352e-11
5.26353e-11
5.26353e-11
5.26354e-11
5.26355e-11
5.26356e-11
5.26356e-11
5.26357e-11
5.26358e-11
5.26358e-11
5.26359e-11
5.2636e-11
5.2636e-11
5.26361e-11
5.26362e-11
5.26363e-11
5.26363e-11
5.26364e-11
5.26365e-11
5.26366e-11
5.26366e-11
)
;

boundaryField
{
    fixedWall
    {
        type            zeroGradient;
    }
    outlet
    {
        type            inletOutlet;
        inletValue      uniform 0;
        value           uniform 5.26366e-11;
    }
    defaultFaces
    {
        type            empty;
    }
}


// ************************************************************************* //
