/*--------------------------------*- C++ -*----------------------------------*\
| =========                 |                                                 |
| \\      /  F ield         | OpenFOAM: The Open Source CFD Toolbox           |
|  \\    /   O peration     | Version:  2406                                  |
|   \\  /    A nd           | Website:  www.openfoam.com                      |
|    \\/     M anipulation  |                                                 |
\*---------------------------------------------------------------------------*/
FoamFile
{
    version     2.0;
    format      ascii;
    arch        "LSB;label=32;scalar=64";
    class       volScalarField;
    location    "1.3";
    object      H2O;
}
// * * * * * * * * * * * * * * * * * * * * * * * * * * * * * * * * * * * * * //

dimensions      [0 0 0 0 0 0 0];

internalField   nonuniform List<scalar> 
1000
(
0.0580662
0.0580662
0.0580662
0.0580662
0.0580662
0.0580662
0.0580662
0.0580662
0.0580662
0.0580662
0.0580662
0.0580662
0.0580662
0.0580662
0.0580662
0.0580662
0.0580662
0.0580662
0.0580662
0.0580662
0.0580662
0.0580662
0.0580662
0.0580662
0.0580662
0.0580662
0.0580662
0.0580662
0.0580662
0.0580662
0.0580662
0.0580662
0.0580662
0.0580662
0.0580662
0.0580662
0.0580662
0.0580662
0.0580662
0.0580662
0.0580662
0.0580662
0.0580662
0.0580662
0.0580661
0.0580661
0.0580661
0.0580661
0.0580661
0.0580661
0.0580661
0.0580661
0.0580661
0.058066
0.058066
0.058066
0.058066
0.058066
0.058066
0.058066
0.058066
0.058066
0.0580659
0.0580659
0.0580659
0.0580659
0.0580659
0.0580659
0.0580659
0.0580659
0.0580658
0.0580658
0.0580658
0.0580658
0.0580658
0.0580658
0.0580658
0.0580658
0.0580657
0.0580657
0.0580657
0.0580657
0.0580657
0.0580657
0.0580657
0.0580656
0.0580656
0.0580656
0.0580656
0.0580656
0.0580656
0.0580656
0.0580655
0.0580655
0.0580655
0.0580655
0.0580655
0.0580655
0.0580654
0.0580654
0.0580654
0.0580654
0.0580654
0.0580653
0.0580653
0.0580653
0.0580653
0.0580652
0.0580652
0.0580652
0.0580652
0.0580651
0.0580651
0.0580651
0.0580651
0.058065
0.058065
0.058065
0.0580649
0.0580649
0.0580649
0.0580648
0.0580648
0.0580648
0.0580647
0.0580647
0.0580647
0.0580646
0.0580646
0.0580645
0.0580645
0.0580644
0.0580644
0.0580644
0.0580643
0.0580643
0.0580642
0.0580641
0.0580641
0.058064
0.058064
0.0580639
0.0580638
0.0580638
0.0580637
0.0580636
0.0580636
0.0580635
0.0580634
0.0580633
0.0580632
0.0580631
0.058063
0.0580629
0.0580628
0.0580627
0.0580625
0.0580624
0.0580623
0.0580621
0.058062
0.0580618
0.0580616
0.0580614
0.0580612
0.058061
0.0580608
0.0580605
0.0580603
0.05806
0.0580597
0.0580593
0.0580589
0.0580585
0.0580581
0.0580576
0.058057
0.0580564
0.0580557
0.0580549
0.058054
0.058053
0.0580518
0.0580504
0.0580488
0.0580469
0.0580445
0.0580416
0.058038
0.0580334
0.0580273
0.058019
0.0580072
0.0579891
0.0579587
0.0579023
0.0577844
0.0574892
0.0565448
0.0527852
0.026621
0.0127596
0.00617366
0.00301298
0.00148056
0.000731186
0.000362359
0.000179992
8.95387e-05
4.45812e-05
2.22071e-05
1.10636e-05
5.51145e-06
2.7449e-06
1.36655e-06
6.80033e-07
3.38242e-07
1.68159e-07
8.35672e-08
4.15197e-08
2.06284e-08
1.0255e-08
5.10681e-09
2.55629e-09
1.27938e-09
6.60953e-10
3.55197e-10
2.20651e-10
1.56169e-10
1.00642e-10
7.27928e-11
5.71815e-11
5.16088e-11
4.80908e-11
4.62353e-11
4.4851e-11
4.40858e-11
4.37036e-11
4.34184e-11
4.32794e-11
4.31764e-11
4.31274e-11
4.30949e-11
4.30798e-11
4.30727e-11
4.30667e-11
4.30631e-11
4.30618e-11
4.30611e-11
4.30605e-11
4.30603e-11
4.30601e-11
4.30601e-11
4.306e-11
4.306e-11
4.306e-11
4.30601e-11
4.30601e-11
4.30601e-11
4.30601e-11
4.30602e-11
4.30602e-11
4.30603e-11
4.30603e-11
4.30603e-11
4.30604e-11
4.30604e-11
4.30604e-11
4.30605e-11
4.30605e-11
4.30605e-11
4.30606e-11
4.30606e-11
4.30606e-11
4.30607e-11
4.30607e-11
4.30607e-11
4.30608e-11
4.30608e-11
4.30608e-11
4.30609e-11
4.30609e-11
4.30609e-11
4.3061e-11
4.3061e-11
4.3061e-11
4.30611e-11
4.30611e-11
4.30612e-11
4.30612e-11
4.30612e-11
4.30613e-11
4.30613e-11
4.30613e-11
4.30613e-11
4.30614e-11
4.30614e-11
4.30615e-11
4.30615e-11
4.30615e-11
4.30616e-11
4.30616e-11
4.30616e-11
4.30617e-11
4.30617e-11
4.30617e-11
4.30618e-11
4.30618e-11
4.30618e-11
4.30619e-11
4.30619e-11
4.30619e-11
4.3062e-11
4.3062e-11
4.3062e-11
4.30621e-11
4.30621e-11
4.30621e-11
4.30622e-11
4.30622e-11
4.30622e-11
4.30622e-11
4.30623e-11
4.30623e-11
4.30624e-11
4.30624e-11
4.30624e-11
4.30624e-11
4.30625e-11
4.30625e-11
4.30626e-11
4.30626e-11
4.30626e-11
4.30627e-11
4.30627e-11
4.30627e-11
4.30628e-11
4.30628e-11
4.30628e-11
4.30629e-11
4.30629e-11
4.30629e-11
4.30629e-11
4.3063e-11
4.3063e-11
4.3063e-11
4.30631e-11
4.30631e-11
4.30631e-11
4.30632e-11
4.30632e-11
4.30632e-11
4.30633e-11
4.30633e-11
4.30633e-11
4.30634e-11
4.30634e-11
4.30634e-11
4.30635e-11
4.30635e-11
4.30635e-11
4.30636e-11
4.30636e-11
4.30636e-11
4.30637e-11
4.30637e-11
4.30637e-11
4.30638e-11
4.30638e-11
4.30638e-11
4.30639e-11
4.30639e-11
4.30639e-11
4.30639e-11
4.3064e-11
4.3064e-11
4.3064e-11
4.30641e-11
4.30641e-11
4.30641e-11
4.30642e-11
4.30642e-11
4.30642e-11
4.30643e-11
4.30643e-11
4.30643e-11
4.30644e-11
4.30644e-11
4.30644e-11
4.30645e-11
4.30645e-11
4.30645e-11
4.30646e-11
4.30646e-11
4.30646e-11
4.30647e-11
4.30647e-11
4.30647e-11
4.30648e-11
4.30648e-11
4.30648e-11
4.30649e-11
4.30649e-11
4.30649e-11
4.3065e-11
4.3065e-11
4.3065e-11
4.30651e-11
4.30651e-11
4.30651e-11
4.30652e-11
4.30652e-11
4.30652e-11
4.30653e-11
4.30653e-11
4.30653e-11
4.30654e-11
4.30654e-11
4.30654e-11
4.30655e-11
4.30655e-11
4.30655e-11
4.30656e-11
4.30656e-11
4.30656e-11
4.30657e-11
4.30657e-11
4.30658e-11
4.30658e-11
4.30658e-11
4.30659e-11
4.30659e-11
4.30659e-11
4.3066e-11
4.3066e-11
4.3066e-11
4.30661e-11
4.30661e-11
4.30661e-11
4.30662e-11
4.30662e-11
4.30662e-11
4.30663e-11
4.30663e-11
4.30664e-11
4.30664e-11
4.30664e-11
4.30665e-11
4.30665e-11
4.30665e-11
4.30666e-11
4.30666e-11
4.30666e-11
4.30667e-11
4.30667e-11
4.30668e-11
4.30668e-11
4.30668e-11
4.30669e-11
4.30669e-11
4.30669e-11
4.3067e-11
4.3067e-11
4.30671e-11
4.30671e-11
4.30671e-11
4.30672e-11
4.30672e-11
4.30672e-11
4.30673e-11
4.30673e-11
4.30673e-11
4.30674e-11
4.30674e-11
4.30675e-11
4.30675e-11
4.30675e-11
4.30676e-11
4.30676e-11
4.30677e-11
4.30677e-11
4.30677e-11
4.30678e-11
4.30678e-11
4.30678e-11
4.30679e-11
4.30679e-11
4.3068e-11
4.3068e-11
4.3068e-11
4.30681e-11
4.30681e-11
4.30682e-11
4.30682e-11
4.30682e-11
4.30683e-11
4.30683e-11
4.30684e-11
4.30684e-11
4.30684e-11
4.30685e-11
4.30685e-11
4.30686e-11
4.30686e-11
4.30686e-11
4.30687e-11
4.30687e-11
4.30688e-11
4.30688e-11
4.30688e-11
4.30689e-11
4.30689e-11
4.3069e-11
4.3069e-11
4.3069e-11
4.30691e-11
4.30691e-11
4.30691e-11
4.30692e-11
4.30692e-11
4.30693e-11
4.30693e-11
4.30694e-11
4.30694e-11
4.30694e-11
4.30695e-11
4.30695e-11
4.30696e-11
4.30696e-11
4.30696e-11
4.30697e-11
4.30697e-11
4.30698e-11
4.30698e-11
4.30699e-11
4.30699e-11
4.30699e-11
4.307e-11
4.307e-11
4.30701e-11
4.30701e-11
4.30701e-11
4.30702e-11
4.30702e-11
4.30703e-11
4.30703e-11
4.30704e-11
4.30704e-11
4.30705e-11
4.30705e-11
4.30705e-11
4.30706e-11
4.30706e-11
4.30707e-11
4.30707e-11
4.30707e-11
4.30708e-11
4.30708e-11
4.30709e-11
4.30709e-11
4.3071e-11
4.3071e-11
4.3071e-11
4.30711e-11
4.30711e-11
4.30712e-11
4.30712e-11
4.30712e-11
4.30713e-11
4.30713e-11
4.30714e-11
4.30714e-11
4.30715e-11
4.30715e-11
4.30716e-11
4.30716e-11
4.30716e-11
4.30717e-11
4.30717e-11
4.30718e-11
4.30718e-11
4.30719e-11
4.30719e-11
4.30719e-11
4.3072e-11
4.3072e-11
4.30721e-11
4.30721e-11
4.30721e-11
4.30722e-11
4.30723e-11
4.30723e-11
4.30723e-11
4.30724e-11
4.30724e-11
4.30725e-11
4.30725e-11
4.30726e-11
4.30726e-11
4.30727e-11
4.30727e-11
4.30727e-11
4.30728e-11
4.30728e-11
4.30729e-11
4.30729e-11
4.30729e-11
4.3073e-11
4.30731e-11
4.30731e-11
4.30731e-11
4.30732e-11
4.30732e-11
4.30733e-11
4.30733e-11
4.30734e-11
4.30734e-11
4.30735e-11
4.30735e-11
4.30735e-11
4.30736e-11
4.30736e-11
4.30737e-11
4.30737e-11
4.30738e-11
4.30738e-11
4.30738e-11
4.30739e-11
4.30739e-11
4.3074e-11
4.3074e-11
4.30741e-11
4.30741e-11
4.30742e-11
4.30742e-11
4.30742e-11
4.30743e-11
4.30743e-11
4.30744e-11
4.30744e-11
4.30745e-11
4.30745e-11
4.30746e-11
4.30746e-11
4.30747e-11
4.30747e-11
4.30748e-11
4.30748e-11
4.30749e-11
4.30749e-11
4.30749e-11
4.3075e-11
4.3075e-11
4.30751e-11
4.30751e-11
4.30752e-11
4.30752e-11
4.30753e-11
4.30753e-11
4.30753e-11
4.30754e-11
4.30754e-11
4.30755e-11
4.30755e-11
4.30756e-11
4.30756e-11
4.30757e-11
4.30757e-11
4.30758e-11
4.30758e-11
4.30759e-11
4.30759e-11
4.3076e-11
4.3076e-11
4.3076e-11
4.30761e-11
4.30761e-11
4.30762e-11
4.30762e-11
4.30763e-11
4.30763e-11
4.30764e-11
4.30764e-11
4.30765e-11
4.30765e-11
4.30765e-11
4.30766e-11
4.30767e-11
4.30767e-11
4.30767e-11
4.30768e-11
4.30769e-11
4.30769e-11
4.30769e-11
4.3077e-11
4.3077e-11
4.30771e-11
4.30771e-11
4.30772e-11
4.30772e-11
4.30773e-11
4.30773e-11
4.30774e-11
4.30774e-11
4.30775e-11
4.30775e-11
4.30776e-11
4.30776e-11
4.30777e-11
4.30777e-11
4.30777e-11
4.30778e-11
4.30778e-11
4.30779e-11
4.30779e-11
4.3078e-11
4.3078e-11
4.30781e-11
4.30781e-11
4.30782e-11
4.30782e-11
4.30783e-11
4.30783e-11
4.30784e-11
4.30784e-11
4.30785e-11
4.30785e-11
4.30786e-11
4.30786e-11
4.30786e-11
4.30787e-11
4.30787e-11
4.30788e-11
4.30788e-11
4.30789e-11
4.30789e-11
4.3079e-11
4.3079e-11
4.30791e-11
4.30791e-11
4.30792e-11
4.30792e-11
4.30793e-11
4.30793e-11
4.30794e-11
4.30794e-11
4.30795e-11
4.30795e-11
4.30796e-11
4.30796e-11
4.30797e-11
4.30797e-11
4.30798e-11
4.30798e-11
4.30799e-11
4.30799e-11
4.308e-11
4.308e-11
4.30801e-11
4.30801e-11
4.30802e-11
4.30802e-11
4.30803e-11
4.30803e-11
4.30804e-11
4.30804e-11
4.30804e-11
4.30805e-11
4.30806e-11
4.30806e-11
4.30806e-11
4.30807e-11
4.30808e-11
4.30808e-11
4.30808e-11
4.30809e-11
4.30809e-11
4.3081e-11
4.3081e-11
4.30811e-11
4.30812e-11
4.30812e-11
4.30813e-11
4.30813e-11
4.30813e-11
4.30814e-11
4.30814e-11
4.30815e-11
4.30816e-11
4.30816e-11
4.30817e-11
4.30817e-11
4.30818e-11
4.30818e-11
4.30818e-11
4.30819e-11
4.3082e-11
4.3082e-11
4.30821e-11
4.30821e-11
4.30821e-11
4.30822e-11
4.30822e-11
4.30823e-11
4.30824e-11
4.30824e-11
4.30825e-11
4.30825e-11
4.30826e-11
4.30826e-11
4.30827e-11
4.30827e-11
4.30828e-11
4.30828e-11
4.30829e-11
4.30829e-11
4.3083e-11
4.3083e-11
4.30831e-11
4.30831e-11
4.30832e-11
4.30832e-11
4.30833e-11
4.30833e-11
4.30834e-11
4.30834e-11
4.30835e-11
4.30835e-11
4.30836e-11
4.30836e-11
4.30837e-11
4.30838e-11
4.30838e-11
4.30838e-11
4.30839e-11
4.3084e-11
4.3084e-11
4.30841e-11
4.30841e-11
4.30842e-11
4.30842e-11
4.30843e-11
4.30843e-11
4.30844e-11
4.30844e-11
4.30845e-11
4.30845e-11
4.30846e-11
4.30846e-11
4.30847e-11
4.30848e-11
4.30848e-11
4.30849e-11
4.30849e-11
4.3085e-11
4.3085e-11
4.30851e-11
4.30851e-11
4.30852e-11
4.30852e-11
4.30853e-11
4.30853e-11
4.30854e-11
4.30855e-11
4.30855e-11
4.30855e-11
4.30856e-11
4.30857e-11
4.30857e-11
4.30858e-11
4.30858e-11
4.30859e-11
4.30859e-11
4.3086e-11
4.3086e-11
4.30861e-11
4.30861e-11
4.30862e-11
4.30863e-11
4.30863e-11
4.30864e-11
4.30864e-11
4.30865e-11
4.30865e-11
4.30866e-11
4.30866e-11
4.30867e-11
4.30867e-11
4.30868e-11
4.30869e-11
4.30869e-11
4.3087e-11
4.3087e-11
4.30871e-11
4.30871e-11
4.30872e-11
4.30872e-11
4.30873e-11
4.30874e-11
4.30874e-11
4.30874e-11
4.30875e-11
4.30876e-11
4.30876e-11
4.30877e-11
4.30877e-11
4.30878e-11
4.30879e-11
4.30879e-11
4.30879e-11
4.3088e-11
4.30881e-11
4.30881e-11
4.30882e-11
4.30882e-11
4.30883e-11
4.30883e-11
4.30884e-11
4.30885e-11
4.30885e-11
4.30886e-11
4.30886e-11
4.30887e-11
4.30887e-11
4.30888e-11
4.30889e-11
4.30889e-11
4.3089e-11
4.3089e-11
4.30891e-11
4.30892e-11
4.30892e-11
4.30893e-11
4.30893e-11
4.30894e-11
4.30894e-11
4.30895e-11
4.30895e-11
4.30896e-11
4.30897e-11
4.30897e-11
4.30898e-11
4.30898e-11
4.30899e-11
4.30899e-11
4.309e-11
4.309e-11
4.30901e-11
4.30902e-11
4.30902e-11
4.30903e-11
4.30904e-11
4.30904e-11
4.30905e-11
4.30905e-11
4.30906e-11
4.30906e-11
4.30907e-11
4.30908e-11
4.30908e-11
4.30909e-11
4.30909e-11
4.3091e-11
4.3091e-11
4.30911e-11
4.30912e-11
4.30912e-11
4.30913e-11
4.30913e-11
4.30914e-11
4.30915e-11
4.30915e-11
4.30916e-11
4.30916e-11
4.30917e-11
4.30917e-11
4.30918e-11
4.30918e-11
4.30919e-11
4.3092e-11
4.3092e-11
4.30921e-11
4.30921e-11
4.30922e-11
4.30923e-11
4.30923e-11
4.30924e-11
4.30924e-11
4.30925e-11
4.30926e-11
4.30926e-11
4.30927e-11
4.30927e-11
4.30928e-11
4.30928e-11
4.30929e-11
4.3093e-11
4.3093e-11
4.30931e-11
4.30932e-11
)
;

boundaryField
{
    fixedWall
    {
        type            zeroGradient;
    }
    outlet
    {
        type            inletOutlet;
        inletValue      uniform 0;
        value           uniform 4.30932e-11;
    }
    defaultFaces
    {
        type            empty;
    }
}


// ************************************************************************* //
