/*--------------------------------*- C++ -*----------------------------------*\
| =========                 |                                                 |
| \\      /  F ield         | OpenFOAM: The Open Source CFD Toolbox           |
|  \\    /   O peration     | Version:  2406                                  |
|   \\  /    A nd           | Website:  www.openfoam.com                      |
|    \\/     M anipulation  |                                                 |
\*---------------------------------------------------------------------------*/
FoamFile
{
    version     2.0;
    format      ascii;
    arch        "LSB;label=32;scalar=64";
    class       surfaceScalarField;
    location    "1.3";
    object      phi;
}
// * * * * * * * * * * * * * * * * * * * * * * * * * * * * * * * * * * * * * //

dimensions      [1 0 -1 0 0 0 0];

oriented        oriented;

internalField   nonuniform List<scalar> 
999
(
-5.14495e-07
-1.30712e-06
-2.15538e-06
-2.99653e-06
-3.81001e-06
-4.58916e-06
-5.33254e-06
-6.04083e-06
-6.71561e-06
-7.3589e-06
-7.97272e-06
-8.56583e-06
-9.12391e-06
-9.65279e-06
-1.01539e-05
-1.06297e-05
-1.10819e-05
-1.15113e-05
-1.19187e-05
-1.23045e-05
-1.26694e-05
-1.3014e-05
-1.3339e-05
-1.3645e-05
-1.39327e-05
-1.42024e-05
-1.44544e-05
-1.46887e-05
-1.49019e-05
-1.51093e-05
-1.53022e-05
-1.54803e-05
-1.56445e-05
-1.57958e-05
-1.5935e-05
-1.60626e-05
-1.61794e-05
-1.6286e-05
-1.63831e-05
-1.64712e-05
-1.6551e-05
-1.66231e-05
-1.66879e-05
-1.67462e-05
-1.67984e-05
-1.68451e-05
-1.68867e-05
-1.69236e-05
-1.69565e-05
-1.69857e-05
-1.70115e-05
-1.70344e-05
-1.70547e-05
-1.70727e-05
-1.70887e-05
-1.71029e-05
-1.71157e-05
-1.71272e-05
-1.71376e-05
-1.71471e-05
-1.71559e-05
-1.7164e-05
-1.71717e-05
-1.7179e-05
-1.7186e-05
-1.71929e-05
-1.71995e-05
-1.72062e-05
-1.72127e-05
-1.72193e-05
-1.7226e-05
-1.72327e-05
-1.72395e-05
-1.72464e-05
-1.72534e-05
-1.72605e-05
-1.72678e-05
-1.72752e-05
-1.72828e-05
-1.72904e-05
-1.72982e-05
-1.73062e-05
-1.73142e-05
-1.73224e-05
-1.73307e-05
-1.7339e-05
-1.73475e-05
-1.73561e-05
-1.73648e-05
-1.73735e-05
-1.73823e-05
-1.73912e-05
-1.74002e-05
-1.74092e-05
-1.74182e-05
-1.74273e-05
-1.74365e-05
-1.74457e-05
-1.74549e-05
-1.74641e-05
-1.74733e-05
-1.74826e-05
-1.74918e-05
-1.75011e-05
-1.75104e-05
-1.75196e-05
-1.75289e-05
-1.75381e-05
-1.75473e-05
-1.75565e-05
-1.75657e-05
-1.75749e-05
-1.7584e-05
-1.75932e-05
-1.76022e-05
-1.76113e-05
-1.76203e-05
-1.76293e-05
-1.76382e-05
-1.76471e-05
-1.7656e-05
-1.76647e-05
-1.76735e-05
-1.76822e-05
-1.76908e-05
-1.76994e-05
-1.77079e-05
-1.77164e-05
-1.77248e-05
-1.77331e-05
-1.77415e-05
-1.77497e-05
-1.7758e-05
-1.77662e-05
-1.77744e-05
-1.77827e-05
-1.77909e-05
-1.77991e-05
-1.78074e-05
-1.78157e-05
-1.78241e-05
-1.78325e-05
-1.7841e-05
-1.78496e-05
-1.78583e-05
-1.78671e-05
-1.7876e-05
-1.7885e-05
-1.78942e-05
-1.79034e-05
-1.79127e-05
-1.79222e-05
-1.79316e-05
-1.79411e-05
-1.79506e-05
-1.796e-05
-1.79694e-05
-1.79787e-05
-1.79878e-05
-1.79967e-05
-1.80054e-05
-1.8014e-05
-1.80224e-05
-1.80307e-05
-1.80389e-05
-1.80472e-05
-1.80555e-05
-1.80639e-05
-1.80726e-05
-1.80815e-05
-1.80907e-05
-1.81001e-05
-1.81096e-05
-1.81192e-05
-1.81286e-05
-1.81376e-05
-1.81459e-05
-1.81533e-05
-1.81596e-05
-1.81644e-05
-1.81677e-05
-1.81693e-05
-1.81691e-05
-1.8167e-05
-1.81631e-05
-1.8157e-05
-1.81486e-05
-1.81373e-05
-1.81218e-05
-1.80998e-05
-1.80666e-05
-1.80152e-05
-1.79368e-05
-1.7819e-05
-1.76214e-05
-1.71445e-05
-1.55033e-05
-9.16912e-06
1.63213e-05
0.000150692
0.000330199
0.00051624
0.00067657
0.000792431
0.000866139
0.000909464
0.000933809
0.000947155
0.000954372
0.000958243
0.000960305
0.000961395
0.000961964
0.000962254
0.000962395
0.000962455
0.000962473
0.000962469
0.000962452
0.000962429
0.000962402
0.000962374
0.000962344
0.000962314
0.000962284
0.000962254
0.000962224
0.000962194
0.000962164
0.000962134
0.000962104
0.000962074
0.000962044
0.000962014
0.000961985
0.000961955
0.000961925
0.000961896
0.000961867
0.000961837
0.000961808
0.000961779
0.000961749
0.00096172
0.000961691
0.000961662
0.000961633
0.000961605
0.000961576
0.000961547
0.000961518
0.00096149
0.000961461
0.000961433
0.000961405
0.000961376
0.000961348
0.00096132
0.000961292
0.000961264
0.000961235
0.000961208
0.00096118
0.000961152
0.000961124
0.000961096
0.000961069
0.000961041
0.000961014
0.000960986
0.000960959
0.000960932
0.000960904
0.000960877
0.00096085
0.000960823
0.000960796
0.000960769
0.000960742
0.000960715
0.000960688
0.000960662
0.000960635
0.000960608
0.000960582
0.000960555
0.000960529
0.000960503
0.000960476
0.00096045
0.000960424
0.000960398
0.000960372
0.000960346
0.00096032
0.000960294
0.000960268
0.000960242
0.000960217
0.000960191
0.000960166
0.00096014
0.000960115
0.000960089
0.000960064
0.000960038
0.000960013
0.000959988
0.000959963
0.000959938
0.000959913
0.000959888
0.000959863
0.000959838
0.000959813
0.000959789
0.000959764
0.000959739
0.000959715
0.00095969
0.000959666
0.000959642
0.000959617
0.000959593
0.000959569
0.000959545
0.000959521
0.000959497
0.000959473
0.000959449
0.000959425
0.000959401
0.000959377
0.000959353
0.00095933
0.000959306
0.000959283
0.000959259
0.000959236
0.000959212
0.000959189
0.000959166
0.000959142
0.000959119
0.000959096
0.000959073
0.00095905
0.000959027
0.000959004
0.000958981
0.000958959
0.000958936
0.000958913
0.000958891
0.000958868
0.000958845
0.000958823
0.000958801
0.000958778
0.000958756
0.000958734
0.000958711
0.000958689
0.000958667
0.000958645
0.000958623
0.000958601
0.000958579
0.000958557
0.000958536
0.000958514
0.000958492
0.00095847
0.000958449
0.000958427
0.000958406
0.000958384
0.000958363
0.000958342
0.00095832
0.000958299
0.000958278
0.000958257
0.000958236
0.000958215
0.000958194
0.000958173
0.000958152
0.000958131
0.00095811
0.000958089
0.000958069
0.000958048
0.000958027
0.000958007
0.000957986
0.000957966
0.000957946
0.000957925
0.000957905
0.000957885
0.000957864
0.000957844
0.000957824
0.000957804
0.000957784
0.000957764
0.000957744
0.000957724
0.000957705
0.000957685
0.000957665
0.000957645
0.000957626
0.000957606
0.000957587
0.000957567
0.000957548
0.000957528
0.000957509
0.00095749
0.00095747
0.000957451
0.000957432
0.000957413
0.000957394
0.000957375
0.000957356
0.000957337
0.000957318
0.000957299
0.00095728
0.000957262
0.000957243
0.000957224
0.000957206
0.000957187
0.000957169
0.00095715
0.000957132
0.000957113
0.000957095
0.000957077
0.000957058
0.00095704
0.000957022
0.000957004
0.000956986
0.000956968
0.00095695
0.000956932
0.000956914
0.000956896
0.000956878
0.000956861
0.000956843
0.000956825
0.000956808
0.00095679
0.000956773
0.000956755
0.000956738
0.00095672
0.000956703
0.000956686
0.000956668
0.000956651
0.000956634
0.000956617
0.0009566
0.000956583
0.000956566
0.000956549
0.000956532
0.000956515
0.000956498
0.000956481
0.000956464
0.000956448
0.000956431
0.000956414
0.000956398
0.000956381
0.000956365
0.000956348
0.000956332
0.000956316
0.000956299
0.000956283
0.000956267
0.000956251
0.000956234
0.000956218
0.000956202
0.000956186
0.00095617
0.000956154
0.000956138
0.000956122
0.000956107
0.000956091
0.000956075
0.000956059
0.000956044
0.000956028
0.000956012
0.000955997
0.000955981
0.000955966
0.00095595
0.000955935
0.00095592
0.000955904
0.000955889
0.000955874
0.000955859
0.000955844
0.000955829
0.000955813
0.000955798
0.000955783
0.000955768
0.000955754
0.000955739
0.000955724
0.000955709
0.000955694
0.00095568
0.000955665
0.00095565
0.000955636
0.000955621
0.000955607
0.000955592
0.000955578
0.000955563
0.000955549
0.000955535
0.00095552
0.000955506
0.000955492
0.000955478
0.000955464
0.00095545
0.000955436
0.000955422
0.000955408
0.000955394
0.00095538
0.000955366
0.000955352
0.000955338
0.000955325
0.000955311
0.000955297
0.000955284
0.00095527
0.000955257
0.000955243
0.00095523
0.000955216
0.000955203
0.000955189
0.000955176
0.000955163
0.00095515
0.000955136
0.000955123
0.00095511
0.000955097
0.000955084
0.000955071
0.000955058
0.000955045
0.000955032
0.000955019
0.000955006
0.000954993
0.000954981
0.000954968
0.000954955
0.000954943
0.00095493
0.000954917
0.000954905
0.000954892
0.00095488
0.000954867
0.000954855
0.000954843
0.00095483
0.000954818
0.000954806
0.000954794
0.000954781
0.000954769
0.000954757
0.000954745
0.000954733
0.000954721
0.000954709
0.000954697
0.000954685
0.000954673
0.000954661
0.00095465
0.000954638
0.000954626
0.000954615
0.000954603
0.000954591
0.00095458
0.000954568
0.000954557
0.000954545
0.000954534
0.000954522
0.000954511
0.0009545
0.000954488
0.000954477
0.000954466
0.000954455
0.000954443
0.000954432
0.000954421
0.00095441
0.000954399
0.000954388
0.000954377
0.000954366
0.000954355
0.000954344
0.000954334
0.000954323
0.000954312
0.000954301
0.000954291
0.00095428
0.000954269
0.000954259
0.000954248
0.000954238
0.000954227
0.000954217
0.000954206
0.000954196
0.000954186
0.000954175
0.000954165
0.000954155
0.000954145
0.000954135
0.000954124
0.000954114
0.000954104
0.000954094
0.000954084
0.000954074
0.000954064
0.000954054
0.000954044
0.000954035
0.000954025
0.000954015
0.000954005
0.000953996
0.000953986
0.000953976
0.000953967
0.000953957
0.000953947
0.000953938
0.000953928
0.000953919
0.00095391
0.0009539
0.000953891
0.000953882
0.000953872
0.000953863
0.000953854
0.000953845
0.000953835
0.000953826
0.000953817
0.000953808
0.000953799
0.00095379
0.000953781
0.000953772
0.000953763
0.000953754
0.000953746
0.000953737
0.000953728
0.000953719
0.000953711
0.000953702
0.000953693
0.000953685
0.000953676
0.000953668
0.000953659
0.000953651
0.000953642
0.000953634
0.000953625
0.000953617
0.000953609
0.0009536
0.000953592
0.000953584
0.000953576
0.000953567
0.000953559
0.000953551
0.000953543
0.000953535
0.000953527
0.000953519
0.000953511
0.000953503
0.000953495
0.000953487
0.00095348
0.000953472
0.000953464
0.000953456
0.000953449
0.000953441
0.000953433
0.000953426
0.000953418
0.000953411
0.000953403
0.000953395
0.000953388
0.000953381
0.000953373
0.000953366
0.000953359
0.000953351
0.000953344
0.000953337
0.000953329
0.000953322
0.000953315
0.000953308
0.000953301
0.000953294
0.000953287
0.00095328
0.000953273
0.000953266
0.000953259
0.000953252
0.000953245
0.000953238
0.000953232
0.000953225
0.000953218
0.000953211
0.000953205
0.000953198
0.000953191
0.000953185
0.000953178
0.000953172
0.000953165
0.000953159
0.000953152
0.000953146
0.00095314
0.000953133
0.000953127
0.000953121
0.000953114
0.000953108
0.000953102
0.000953096
0.00095309
0.000953084
0.000953077
0.000953071
0.000953065
0.000953059
0.000953053
0.000953047
0.000953042
0.000953036
0.00095303
0.000953024
0.000953018
0.000953013
0.000953007
0.000953001
0.000952995
0.00095299
0.000952984
0.000952979
0.000952973
0.000952967
0.000952962
0.000952957
0.000952951
0.000952946
0.00095294
0.000952935
0.00095293
0.000952924
0.000952919
0.000952914
0.000952909
0.000952903
0.000952898
0.000952893
0.000952888
0.000952883
0.000952878
0.000952873
0.000952868
0.000952863
0.000952858
0.000952853
0.000952848
0.000952844
0.000952839
0.000952834
0.000952829
0.000952824
0.00095282
0.000952815
0.00095281
0.000952806
0.000952801
0.000952797
0.000952792
0.000952788
0.000952783
0.000952779
0.000952774
0.00095277
0.000952766
0.000952761
0.000952757
0.000952753
0.000952749
0.000952744
0.00095274
0.000952736
0.000952732
0.000952728
0.000952724
0.00095272
0.000952716
0.000952712
0.000952708
0.000952704
0.0009527
0.000952696
0.000952692
0.000952688
0.000952685
0.000952681
0.000952677
0.000952673
0.00095267
0.000952666
0.000952662
0.000952659
0.000952655
0.000952652
0.000952648
0.000952645
0.000952641
0.000952638
0.000952634
0.000952631
0.000952628
0.000952624
0.000952621
0.000952618
0.000952615
0.000952611
0.000952608
0.000952605
0.000952602
0.000952599
0.000952596
0.000952593
0.00095259
0.000952587
0.000952584
0.000952581
0.000952578
0.000952575
0.000952572
0.000952569
0.000952567
0.000952564
0.000952561
0.000952558
0.000952556
0.000952553
0.00095255
0.000952548
0.000952545
0.000952543
0.00095254
0.000952538
0.000952535
0.000952533
0.00095253
0.000952528
0.000952526
0.000952523
0.000952521
0.000952519
0.000952517
0.000952514
0.000952512
0.00095251
0.000952508
0.000952506
0.000952504
0.000952502
0.0009525
0.000952498
0.000952496
0.000952494
0.000952492
0.00095249
0.000952488
0.000952486
0.000952484
0.000952483
0.000952481
0.000952479
0.000952478
0.000952476
0.000952474
0.000952473
0.000952471
0.000952469
0.000952468
0.000952466
0.000952465
0.000952463
0.000952462
0.000952461
0.000952459
0.000952458
0.000952457
0.000952455
0.000952454
0.000952453
0.000952452
0.00095245
0.000952449
0.000952448
0.000952447
0.000952446
0.000952445
0.000952444
0.000952443
0.000952442
0.000952441
0.00095244
0.000952439
0.000952438
0.000952438
0.000952437
0.000952436
0.000952435
0.000952435
0.000952434
0.000952433
0.000952433
0.000952432
0.000952431
0.000952431
0.00095243
0.00095243
0.000952429
0.000952429
0.000952428
0.000952428
0.000952428
0.000952427
0.000952427
0.000952427
0.000952427
0.000952426
0.000952426
0.000952426
0.000952426
0.000952426
0.000952426
)
;

boundaryField
{
    fixedWall
    {
        type            calculated;
        value           uniform 0;
    }
    outlet
    {
        type            calculated;
        value           uniform 0.000952425;
    }
    defaultFaces
    {
        type            empty;
    }
}


// ************************************************************************* //
