/*--------------------------------*- C++ -*----------------------------------*\
| =========                 |                                                 |
| \\      /  F ield         | OpenFOAM: The Open Source CFD Toolbox           |
|  \\    /   O peration     | Version:  2406                                  |
|   \\  /    A nd           | Website:  www.openfoam.com                      |
|    \\/     M anipulation  |                                                 |
\*---------------------------------------------------------------------------*/
FoamFile
{
    version     2.0;
    format      ascii;
    arch        "LSB;label=32;scalar=64";
    class       volVectorField;
    location    "1.3";
    object      U;
}
// * * * * * * * * * * * * * * * * * * * * * * * * * * * * * * * * * * * * * //

dimensions      [0 1 -1 0 0 0 0];

internalField   nonuniform List<vector> 
1000
(
(-3.60407e-05 0 0)
(-0.000139667 0 0)
(-0.000306307 0 0)
(-0.000505784 0 0)
(-0.000723482 0 0)
(-0.000952035 0 0)
(-0.00118701 0 0)
(-0.00142515 0 0)
(-0.00166398 0 0)
(-0.00190165 0 0)
(-0.00213709 0 0)
(-0.00236988 0 0)
(-0.00259778 0 0)
(-0.00281879 0 0)
(-0.00303273 0 0)
(-0.00323926 0 0)
(-0.00343838 0 0)
(-0.00362994 0 0)
(-0.00381361 0 0)
(-0.00398915 0 0)
(-0.00415638 0 0)
(-0.00431525 0 0)
(-0.00446574 0 0)
(-0.00460789 0 0)
(-0.00474184 0 0)
(-0.00486768 0 0)
(-0.00498536 0 0)
(-0.00509471 0 0)
(-0.00519553 0 0)
(-0.00528973 0 0)
(-0.00537861 0 0)
(-0.00546095 0 0)
(-0.00553642 0 0)
(-0.00560549 0 0)
(-0.00566866 0 0)
(-0.00572628 0 0)
(-0.00577865 0 0)
(-0.00582611 0 0)
(-0.00586897 0 0)
(-0.00590755 0 0)
(-0.00594215 0 0)
(-0.00597309 0 0)
(-0.00600066 0 0)
(-0.00602513 0 0)
(-0.00604678 0 0)
(-0.00606587 0 0)
(-0.00608265 0 0)
(-0.00609725 0 0)
(-0.00611026 0 0)
(-0.00612115 0 0)
(-0.006131 0 0)
(-0.0061394 0 0)
(-0.0061465 0 0)
(-0.006153 0 0)
(-0.00615825 0 0)
(-0.00616298 0 0)
(-0.00616708 0 0)
(-0.00617062 0 0)
(-0.00617374 0 0)
(-0.00617652 0 0)
(-0.00617902 0 0)
(-0.0061813 0 0)
(-0.00618341 0 0)
(-0.0061854 0 0)
(-0.0061873 0 0)
(-0.00618916 0 0)
(-0.006191 0 0)
(-0.00619284 0 0)
(-0.0061947 0 0)
(-0.00619659 0 0)
(-0.00619853 0 0)
(-0.00620053 0 0)
(-0.00620259 0 0)
(-0.00620471 0 0)
(-0.00620691 0 0)
(-0.00620917 0 0)
(-0.00621151 0 0)
(-0.00621392 0 0)
(-0.00621641 0 0)
(-0.00621895 0 0)
(-0.00622157 0 0)
(-0.00622425 0 0)
(-0.00622698 0 0)
(-0.00622977 0 0)
(-0.00623262 0 0)
(-0.00623551 0 0)
(-0.00623846 0 0)
(-0.00624144 0 0)
(-0.00624447 0 0)
(-0.00624751 0 0)
(-0.00625063 0 0)
(-0.00625374 0 0)
(-0.00625687 0 0)
(-0.00626006 0 0)
(-0.00626324 0 0)
(-0.00626646 0 0)
(-0.00626968 0 0)
(-0.00627292 0 0)
(-0.00627616 0 0)
(-0.00627942 0 0)
(-0.00628268 0 0)
(-0.00628595 0 0)
(-0.00628921 0 0)
(-0.00629248 0 0)
(-0.00629575 0 0)
(-0.00629902 0 0)
(-0.00630228 0 0)
(-0.00630554 0 0)
(-0.00630879 0 0)
(-0.00631203 0 0)
(-0.00631528 0 0)
(-0.0063185 0 0)
(-0.00632173 0 0)
(-0.00632493 0 0)
(-0.00632815 0 0)
(-0.00633132 0 0)
(-0.00633454 0 0)
(-0.00633771 0 0)
(-0.00634083 0 0)
(-0.006344 0 0)
(-0.00634712 0 0)
(-0.00635024 0 0)
(-0.00635334 0 0)
(-0.00635642 0 0)
(-0.00635949 0 0)
(-0.00636254 0 0)
(-0.00636558 0 0)
(-0.00636861 0 0)
(-0.00637162 0 0)
(-0.00637462 0 0)
(-0.00637761 0 0)
(-0.00638059 0 0)
(-0.00638356 0 0)
(-0.00638654 0 0)
(-0.00638951 0 0)
(-0.00639249 0 0)
(-0.00639548 0 0)
(-0.00639848 0 0)
(-0.00640149 0 0)
(-0.00640453 0 0)
(-0.00640757 0 0)
(-0.00641067 0 0)
(-0.00641374 0 0)
(-0.00641693 0 0)
(-0.00642011 0 0)
(-0.00642327 0 0)
(-0.00642656 0 0)
(-0.00642983 0 0)
(-0.00643317 0 0)
(-0.00643653 0 0)
(-0.00643991 0 0)
(-0.00644334 0 0)
(-0.00644675 0 0)
(-0.00645021 0 0)
(-0.00645366 0 0)
(-0.006457 0 0)
(-0.00646044 0 0)
(-0.00646378 0 0)
(-0.00646708 0 0)
(-0.00647028 0 0)
(-0.00647341 0 0)
(-0.00647652 0 0)
(-0.00647953 0 0)
(-0.00648252 0 0)
(-0.00648544 0 0)
(-0.00648838 0 0)
(-0.0064913 0 0)
(-0.00649431 0 0)
(-0.0064973 0 0)
(-0.00650048 0 0)
(-0.00650368 0 0)
(-0.00650691 0 0)
(-0.00651027 0 0)
(-0.00651361 0 0)
(-0.00651696 0 0)
(-0.00652013 0 0)
(-0.0065229 0 0)
(-0.00652594 0 0)
(-0.00652786 0 0)
(-0.00652971 0 0)
(-0.0065313 0 0)
(-0.00653164 0 0)
(-0.00653195 0 0)
(-0.00653145 0 0)
(-0.00653026 0 0)
(-0.0065285 0 0)
(-0.00652591 0 0)
(-0.00652256 0 0)
(-0.00651835 0 0)
(-0.00651209 0 0)
(-0.00650173 0 0)
(-0.00648513 0 0)
(-0.00646259 0 0)
(-0.00643796 0 0)
(-0.0063746 0 0)
(-0.00638998 0 0)
(-0.00628561 0 0)
(-0.006172 0 0)
(-0.0025072 0 0)
(0.0204201 0 0)
(0.0575802 0 0)
(0.0847098 0 0)
(0.0987348 0 0)
(0.105244 0 0)
(0.108173 0 0)
(0.109455 0 0)
(0.110069 0 0)
(0.110336 0 0)
(0.1105 0 0)
(0.110578 0 0)
(0.110637 0 0)
(0.110612 0 0)
(0.110599 0 0)
(0.110672 0 0)
(0.110643 0 0)
(0.110616 0 0)
(0.110636 0 0)
(0.110651 0 0)
(0.110622 0 0)
(0.110606 0 0)
(0.110619 0 0)
(0.110646 0 0)
(0.110591 0 0)
(0.110627 0 0)
(0.110592 0 0)
(0.110585 0 0)
(0.110643 0 0)
(0.110571 0 0)
(0.110597 0 0)
(0.110581 0 0)
(0.110586 0 0)
(0.110607 0 0)
(0.110556 0 0)
(0.110595 0 0)
(0.110563 0 0)
(0.110558 0 0)
(0.11057 0 0)
(0.110568 0 0)
(0.11056 0 0)
(0.110535 0 0)
(0.110588 0 0)
(0.110528 0 0)
(0.11053 0 0)
(0.110547 0 0)
(0.110557 0 0)
(0.11053 0 0)
(0.110513 0 0)
(0.110556 0 0)
(0.110507 0 0)
(0.110506 0 0)
(0.110545 0 0)
(0.11052 0 0)
(0.110494 0 0)
(0.110522 0 0)
(0.110497 0 0)
(0.110494 0 0)
(0.110519 0 0)
(0.110489 0 0)
(0.110498 0 0)
(0.110481 0 0)
(0.110494 0 0)
(0.11048 0 0)
(0.110474 0 0)
(0.110501 0 0)
(0.110454 0 0)
(0.110455 0 0)
(0.110487 0 0)
(0.110495 0 0)
(0.110437 0 0)
(0.110415 0 0)
(0.110506 0 0)
(0.110459 0 0)
(0.110414 0 0)
(0.110454 0 0)
(0.11046 0 0)
(0.11043 0 0)
(0.110438 0 0)
(0.110427 0 0)
(0.110416 0 0)
(0.110451 0 0)
(0.110425 0 0)
(0.110404 0 0)
(0.110414 0 0)
(0.110441 0 0)
(0.110395 0 0)
(0.110384 0 0)
(0.110453 0 0)
(0.11039 0 0)
(0.110365 0 0)
(0.110427 0 0)
(0.110397 0 0)
(0.110361 0 0)
(0.11041 0 0)
(0.11037 0 0)
(0.110373 0 0)
(0.110398 0 0)
(0.110379 0 0)
(0.110363 0 0)
(0.11036 0 0)
(0.110374 0 0)
(0.11037 0 0)
(0.110343 0 0)
(0.110362 0 0)
(0.110375 0 0)
(0.110345 0 0)
(0.110336 0 0)
(0.110338 0 0)
(0.110369 0 0)
(0.11032 0 0)
(0.110332 0 0)
(0.110355 0 0)
(0.110325 0 0)
(0.110306 0 0)
(0.11035 0 0)
(0.110333 0 0)
(0.11028 0 0)
(0.110353 0 0)
(0.110321 0 0)
(0.110268 0 0)
(0.110335 0 0)
(0.110307 0 0)
(0.110313 0 0)
(0.110284 0 0)
(0.110288 0 0)
(0.11031 0 0)
(0.110291 0 0)
(0.110284 0 0)
(0.110291 0 0)
(0.110295 0 0)
(0.110268 0 0)
(0.11027 0 0)
(0.110292 0 0)
(0.110261 0 0)
(0.110281 0 0)
(0.11026 0 0)
(0.110257 0 0)
(0.110271 0 0)
(0.110273 0 0)
(0.110248 0 0)
(0.110231 0 0)
(0.110289 0 0)
(0.110229 0 0)
(0.110239 0 0)
(0.110253 0 0)
(0.110225 0 0)
(0.110254 0 0)
(0.110244 0 0)
(0.110212 0 0)
(0.110235 0 0)
(0.110224 0 0)
(0.110231 0 0)
(0.110217 0 0)
(0.110222 0 0)
(0.110206 0 0)
(0.110229 0 0)
(0.11022 0 0)
(0.110181 0 0)
(0.110201 0 0)
(0.110238 0 0)
(0.110218 0 0)
(0.110157 0 0)
(0.110215 0 0)
(0.110193 0 0)
(0.110172 0 0)
(0.110222 0 0)
(0.110171 0 0)
(0.110169 0 0)
(0.1102 0 0)
(0.110196 0 0)
(0.110136 0 0)
(0.110179 0 0)
(0.110201 0 0)
(0.110155 0 0)
(0.110173 0 0)
(0.110142 0 0)
(0.110178 0 0)
(0.110172 0 0)
(0.110141 0 0)
(0.110166 0 0)
(0.110127 0 0)
(0.110167 0 0)
(0.110161 0 0)
(0.110126 0 0)
(0.110154 0 0)
(0.110119 0 0)
(0.110157 0 0)
(0.110145 0 0)
(0.110104 0 0)
(0.110147 0 0)
(0.110133 0 0)
(0.110103 0 0)
(0.110125 0 0)
(0.110133 0 0)
(0.110136 0 0)
(0.110103 0 0)
(0.110072 0 0)
(0.11014 0 0)
(0.110131 0 0)
(0.110108 0 0)
(0.110073 0 0)
(0.110118 0 0)
(0.110095 0 0)
(0.110086 0 0)
(0.110116 0 0)
(0.110082 0 0)
(0.110096 0 0)
(0.110074 0 0)
(0.1101 0 0)
(0.110081 0 0)
(0.110072 0 0)
(0.110074 0 0)
(0.11007 0 0)
(0.110102 0 0)
(0.110081 0 0)
(0.110032 0 0)
(0.110082 0 0)
(0.110064 0 0)
(0.110061 0 0)
(0.11007 0 0)
(0.11006 0 0)
(0.110037 0 0)
(0.110049 0 0)
(0.11009 0 0)
(0.110015 0 0)
(0.110037 0 0)
(0.110085 0 0)
(0.110049 0 0)
(0.110007 0 0)
(0.110045 0 0)
(0.110053 0 0)
(0.11003 0 0)
(0.11002 0 0)
(0.110038 0 0)
(0.110039 0 0)
(0.11001 0 0)
(0.110021 0 0)
(0.110041 0 0)
(0.110003 0 0)
(0.110021 0 0)
(0.110021 0 0)
(0.109987 0 0)
(0.110031 0 0)
(0.110012 0 0)
(0.11001 0 0)
(0.109981 0 0)
(0.109988 0 0)
(0.110035 0 0)
(0.109992 0 0)
(0.109998 0 0)
(0.109973 0 0)
(0.109998 0 0)
(0.11002 0 0)
(0.109991 0 0)
(0.109954 0 0)
(0.109999 0 0)
(0.109983 0 0)
(0.109965 0 0)
(0.110006 0 0)
(0.109957 0 0)
(0.109974 0 0)
(0.109984 0 0)
(0.109954 0 0)
(0.109986 0 0)
(0.109956 0 0)
(0.109944 0 0)
(0.109995 0 0)
(0.109952 0 0)
(0.109937 0 0)
(0.109976 0 0)
(0.109937 0 0)
(0.109961 0 0)
(0.109956 0 0)
(0.10995 0 0)
(0.10993 0 0)
(0.109938 0 0)
(0.10998 0 0)
(0.109913 0 0)
(0.109939 0 0)
(0.109948 0 0)
(0.109924 0 0)
(0.109942 0 0)
(0.109916 0 0)
(0.109945 0 0)
(0.109941 0 0)
(0.109889 0 0)
(0.109943 0 0)
(0.109935 0 0)
(0.109904 0 0)
(0.109923 0 0)
(0.109906 0 0)
(0.109922 0 0)
(0.109925 0 0)
(0.10989 0 0)
(0.10991 0 0)
(0.109926 0 0)
(0.10988 0 0)
(0.109924 0 0)
(0.109895 0 0)
(0.109897 0 0)
(0.109888 0 0)
(0.109889 0 0)
(0.109913 0 0)
(0.109897 0 0)
(0.109867 0 0)
(0.109881 0 0)
(0.109918 0 0)
(0.109882 0 0)
(0.109853 0 0)
(0.109878 0 0)
(0.109908 0 0)
(0.10988 0 0)
(0.109845 0 0)
(0.109869 0 0)
(0.109904 0 0)
(0.109853 0 0)
(0.109891 0 0)
(0.109849 0 0)
(0.109849 0 0)
(0.10988 0 0)
(0.10988 0 0)
(0.10983 0 0)
(0.109851 0 0)
(0.109897 0 0)
(0.109835 0 0)
(0.109839 0 0)
(0.109863 0 0)
(0.109856 0 0)
(0.109844 0 0)
(0.109828 0 0)
(0.109866 0 0)
(0.109854 0 0)
(0.109805 0 0)
(0.109862 0 0)
(0.109853 0 0)
(0.109803 0 0)
(0.109849 0 0)
(0.109841 0 0)
(0.109839 0 0)
(0.109808 0 0)
(0.10981 0 0)
(0.109855 0 0)
(0.109823 0 0)
(0.109802 0 0)
(0.109848 0 0)
(0.10981 0 0)
(0.109807 0 0)
(0.109838 0 0)
(0.109803 0 0)
(0.109818 0 0)
(0.10981 0 0)
(0.109821 0 0)
(0.109814 0 0)
(0.109778 0 0)
(0.109821 0 0)
(0.109819 0 0)
(0.109787 0 0)
(0.109812 0 0)
(0.10979 0 0)
(0.109794 0 0)
(0.109817 0 0)
(0.109772 0 0)
(0.109808 0 0)
(0.109798 0 0)
(0.109791 0 0)
(0.109768 0 0)
(0.109784 0 0)
(0.109815 0 0)
(0.109774 0 0)
(0.109776 0 0)
(0.109793 0 0)
(0.109776 0 0)
(0.10975 0 0)
(0.109803 0 0)
(0.109788 0 0)
(0.109756 0 0)
(0.10978 0 0)
(0.109753 0 0)
(0.109788 0 0)
(0.109776 0 0)
(0.109748 0 0)
(0.109773 0 0)
(0.109756 0 0)
(0.10977 0 0)
(0.109769 0 0)
(0.109736 0 0)
(0.109765 0 0)
(0.109774 0 0)
(0.109734 0 0)
(0.109757 0 0)
(0.109774 0 0)
(0.109738 0 0)
(0.109726 0 0)
(0.109757 0 0)
(0.109765 0 0)
(0.109744 0 0)
(0.109723 0 0)
(0.109741 0 0)
(0.109763 0 0)
(0.109722 0 0)
(0.10976 0 0)
(0.109723 0 0)
(0.109724 0 0)
(0.109744 0 0)
(0.109729 0 0)
(0.109732 0 0)
(0.109743 0 0)
(0.109713 0 0)
(0.109739 0 0)
(0.109721 0 0)
(0.109713 0 0)
(0.109744 0 0)
(0.109707 0 0)
(0.109735 0 0)
(0.109712 0 0)
(0.109711 0 0)
(0.109731 0 0)
(0.109701 0 0)
(0.109721 0 0)
(0.10972 0 0)
(0.109694 0 0)
(0.109719 0 0)
(0.109711 0 0)
(0.109702 0 0)
(0.109725 0 0)
(0.109682 0 0)
(0.109705 0 0)
(0.10972 0 0)
(0.109689 0 0)
(0.10971 0 0)
(0.109686 0 0)
(0.109702 0 0)
(0.109711 0 0)
(0.109683 0 0)
(0.109694 0 0)
(0.109697 0 0)
(0.109687 0 0)
(0.109694 0 0)
(0.109693 0 0)
(0.109683 0 0)
(0.109691 0 0)
(0.109672 0 0)
(0.109697 0 0)
(0.109696 0 0)
(0.109654 0 0)
(0.109693 0 0)
(0.109687 0 0)
(0.109654 0 0)
(0.109697 0 0)
(0.109668 0 0)
(0.109675 0 0)
(0.10968 0 0)
(0.109676 0 0)
(0.109651 0 0)
(0.109671 0 0)
(0.109701 0 0)
(0.10964 0 0)
(0.109669 0 0)
(0.109679 0 0)
(0.109641 0 0)
(0.109671 0 0)
(0.109677 0 0)
(0.109653 0 0)
(0.109657 0 0)
(0.109651 0 0)
(0.109669 0 0)
(0.109665 0 0)
(0.109626 0 0)
(0.109662 0 0)
(0.109672 0 0)
(0.109638 0 0)
(0.109652 0 0)
(0.109647 0 0)
(0.109647 0 0)
(0.10966 0 0)
(0.109631 0 0)
(0.109643 0 0)
(0.109661 0 0)
(0.10963 0 0)
(0.109665 0 0)
(0.109623 0 0)
(0.109626 0 0)
(0.109655 0 0)
(0.109629 0 0)
(0.109649 0 0)
(0.109642 0 0)
(0.109602 0 0)
(0.10965 0 0)
(0.109651 0 0)
(0.109603 0 0)
(0.109642 0 0)
(0.109643 0 0)
(0.109612 0 0)
(0.109634 0 0)
(0.109614 0 0)
(0.109638 0 0)
(0.109636 0 0)
(0.109599 0 0)
(0.10963 0 0)
(0.109641 0 0)
(0.109608 0 0)
(0.109596 0 0)
(0.109627 0 0)
(0.10964 0 0)
(0.109602 0 0)
(0.109623 0 0)
(0.109602 0 0)
(0.109618 0 0)
(0.109627 0 0)
(0.1096 0 0)
(0.109615 0 0)
(0.109602 0 0)
(0.109616 0 0)
(0.109607 0 0)
(0.109608 0 0)
(0.109618 0 0)
(0.109583 0 0)
(0.109615 0 0)
(0.109615 0 0)
(0.109572 0 0)
(0.109618 0 0)
(0.109618 0 0)
(0.109606 0 0)
(0.109561 0 0)
(0.1096 0 0)
(0.10963 0 0)
(0.109579 0 0)
(0.109591 0 0)
(0.10959 0 0)
(0.109597 0 0)
(0.109611 0 0)
(0.109579 0 0)
(0.109587 0 0)
(0.109586 0 0)
(0.109595 0 0)
(0.109602 0 0)
(0.109579 0 0)
(0.109566 0 0)
(0.109591 0 0)
(0.109605 0 0)
(0.109573 0 0)
(0.109584 0 0)
(0.109576 0 0)
(0.10959 0 0)
(0.109591 0 0)
(0.109566 0 0)
(0.109559 0 0)
(0.109588 0 0)
(0.109597 0 0)
(0.109563 0 0)
(0.109588 0 0)
(0.109557 0 0)
(0.109577 0 0)
(0.109575 0 0)
(0.109566 0 0)
(0.109592 0 0)
(0.109561 0 0)
(0.109577 0 0)
(0.109561 0 0)
(0.109545 0 0)
(0.109582 0 0)
(0.109588 0 0)
(0.109571 0 0)
(0.109541 0 0)
(0.109564 0 0)
(0.109575 0 0)
(0.10957 0 0)
(0.109541 0 0)
(0.109562 0 0)
(0.109585 0 0)
(0.109543 0 0)
(0.109562 0 0)
(0.109556 0 0)
(0.109563 0 0)
(0.109554 0 0)
(0.109543 0 0)
(0.10956 0 0)
(0.109562 0 0)
(0.109562 0 0)
(0.109527 0 0)
(0.109559 0 0)
(0.109563 0 0)
(0.109548 0 0)
(0.109551 0 0)
(0.109549 0 0)
(0.109559 0 0)
(0.109526 0 0)
(0.109559 0 0)
(0.109559 0 0)
(0.109529 0 0)
(0.109555 0 0)
(0.109561 0 0)
(0.109521 0 0)
(0.109525 0 0)
(0.109564 0 0)
(0.109565 0 0)
(0.109508 0 0)
(0.109555 0 0)
(0.109556 0 0)
(0.109515 0 0)
(0.10955 0 0)
(0.109551 0 0)
(0.109506 0 0)
(0.109548 0 0)
(0.109561 0 0)
(0.10954 0 0)
(0.10951 0 0)
(0.109538 0 0)
(0.109547 0 0)
(0.109527 0 0)
(0.109527 0 0)
(0.109546 0 0)
(0.109547 0 0)
(0.109508 0 0)
(0.109511 0 0)
(0.109542 0 0)
(0.109554 0 0)
(0.109505 0 0)
(0.109527 0 0)
(0.109547 0 0)
(0.109513 0 0)
(0.109527 0 0)
(0.109541 0 0)
(0.109517 0 0)
(0.109537 0 0)
(0.109507 0 0)
(0.10952 0 0)
(0.109529 0 0)
(0.109528 0 0)
(0.109536 0 0)
(0.109491 0 0)
(0.109533 0 0)
(0.109542 0 0)
(0.10948 0 0)
(0.109533 0 0)
(0.109538 0 0)
(0.109517 0 0)
(0.109494 0 0)
(0.109523 0 0)
(0.109534 0 0)
(0.109508 0 0)
(0.109511 0 0)
(0.109528 0 0)
(0.10951 0 0)
(0.109494 0 0)
(0.109527 0 0)
(0.109531 0 0)
(0.109482 0 0)
(0.109519 0 0)
(0.109534 0 0)
(0.109483 0 0)
(0.109525 0 0)
(0.109518 0 0)
(0.109477 0 0)
(0.109528 0 0)
(0.109536 0 0)
(0.109506 0 0)
(0.109475 0 0)
(0.109509 0 0)
(0.109522 0 0)
(0.109492 0 0)
(0.109521 0 0)
(0.109519 0 0)
(0.109486 0 0)
(0.109518 0 0)
(0.10951 0 0)
(0.109486 0 0)
(0.109503 0 0)
(0.109512 0 0)
(0.109509 0 0)
(0.109488 0 0)
(0.109513 0 0)
(0.109503 0 0)
(0.109488 0 0)
(0.109519 0 0)
(0.109493 0 0)
(0.109493 0 0)
(0.109518 0 0)
(0.109495 0 0)
(0.109485 0 0)
(0.109518 0 0)
(0.109493 0 0)
(0.109486 0 0)
(0.109514 0 0)
(0.109493 0 0)
(0.1095 0 0)
(0.109483 0 0)
(0.109502 0 0)
(0.109513 0 0)
(0.109505 0 0)
(0.109465 0 0)
(0.10949 0 0)
(0.109521 0 0)
(0.109469 0 0)
(0.109502 0 0)
(0.109515 0 0)
(0.109457 0 0)
(0.109503 0 0)
(0.1095 0 0)
(0.109486 0 0)
(0.109492 0 0)
(0.109492 0 0)
(0.109501 0 0)
(0.109492 0 0)
(0.109454 0 0)
(0.10949 0 0)
(0.109523 0 0)
(0.109502 0 0)
(0.10946 0 0)
(0.10948 0 0)
(0.109518 0 0)
(0.109468 0 0)
(0.109492 0 0)
(0.109503 0 0)
(0.109456 0 0)
(0.109502 0 0)
(0.109495 0 0)
(0.109484 0 0)
(0.109489 0 0)
(0.109477 0 0)
(0.109496 0 0)
(0.109471 0 0)
(0.109498 0 0)
(0.109496 0 0)
(0.109459 0 0)
(0.109497 0 0)
(0.109505 0 0)
(0.109461 0 0)
(0.109463 0 0)
(0.109498 0 0)
(0.109502 0 0)
(0.109496 0 0)
(0.109457 0 0)
(0.10946 0 0)
(0.109509 0 0)
(0.1095 0 0)
(0.109452 0 0)
(0.10949 0 0)
(0.109496 0 0)
(0.109456 0 0)
(0.109494 0 0)
(0.109491 0 0)
(0.109472 0 0)
(0.109487 0 0)
(0.10947 0 0)
(0.109493 0 0)
(0.109488 0 0)
(0.109452 0 0)
(0.109498 0 0)
(0.109493 0 0)
(0.109449 0 0)
(0.109496 0 0)
(0.109494 0 0)
(0.109447 0 0)
(0.109495 0 0)
(0.109495 0 0)
(0.109446 0 0)
(0.109495 0 0)
(0.109496 0 0)
(0.109448 0 0)
(0.109491 0 0)
(0.109486 0 0)
(0.109457 0 0)
(0.109488 0 0)
(0.109489 0 0)
(0.10948 0 0)
(0.109463 0 0)
(0.109482 0 0)
(0.109479 0 0)
(0.109475 0 0)
(0.109483 0 0)
(0.109484 0 0)
(0.10946 0 0)
(0.109473 0 0)
(0.109506 0 0)
(0.109453 0 0)
(0.109478 0 0)
(0.109481 0 0)
(0.109477 0 0)
(0.109487 0 0)
(0.109452 0 0)
(0.109492 0 0)
(0.109506 0 0)
(0.109446 0 0)
(0.109454 0 0)
(0.109492 0 0)
(0.109497 0 0)
(0.109476 0 0)
(0.109447 0 0)
(0.10948 0 0)
(0.109507 0 0)
(0.109445 0 0)
(0.109489 0 0)
(0.109485 0 0)
(0.109452 0 0)
(0.109488 0 0)
(0.109495 0 0)
(0.109454 0 0)
(0.109477 0 0)
(0.109487 0 0)
(0.10948 0 0)
)
;

boundaryField
{
    fixedWall
    {
        type            fixedValue;
        value           uniform (0 0 0);
    }
    outlet
    {
        type            pressureInletOutletVelocity;
        value           uniform (0.10948 0 0);
    }
    defaultFaces
    {
        type            empty;
    }
}


// ************************************************************************* //
