/*--------------------------------*- C++ -*----------------------------------*\
| =========                 |                                                 |
| \\      /  F ield         | OpenFOAM: The Open Source CFD Toolbox           |
|  \\    /   O peration     | Version:  2406                                  |
|   \\  /    A nd           | Website:  www.openfoam.com                      |
|    \\/     M anipulation  |                                                 |
\*---------------------------------------------------------------------------*/
FoamFile
{
    version     2.0;
    format      ascii;
    arch        "LSB;label=32;scalar=64";
    class       surfaceScalarField;
    location    "5.1";
    object      phi;
}
// * * * * * * * * * * * * * * * * * * * * * * * * * * * * * * * * * * * * * //

dimensions      [1 0 -1 0 0 0 0];

oriented        oriented;

internalField   nonuniform List<scalar> 
999
(
-7.08484e-08
-1.9823e-07
-3.54442e-07
-5.25547e-07
-7.03964e-07
-8.85342e-07
-1.06709e-06
-1.24763e-06
-1.42597e-06
-1.60153e-06
-1.77392e-06
-1.94293e-06
-2.10846e-06
-2.27044e-06
-2.42888e-06
-2.58379e-06
-2.73522e-06
-2.88322e-06
-3.02785e-06
-3.16917e-06
-3.30727e-06
-3.44219e-06
-3.57401e-06
-3.7028e-06
-3.82861e-06
-3.95152e-06
-4.07158e-06
-4.18885e-06
-4.30339e-06
-4.41525e-06
-4.52449e-06
-4.63115e-06
-4.73529e-06
-4.83696e-06
-4.93619e-06
-5.03304e-06
-5.12755e-06
-5.21976e-06
-5.30972e-06
-5.39746e-06
-5.48302e-06
-5.56644e-06
-5.64777e-06
-5.72703e-06
-5.80427e-06
-5.87952e-06
-5.95281e-06
-6.02419e-06
-6.09369e-06
-6.16134e-06
-6.22717e-06
-6.29123e-06
-6.35354e-06
-6.41413e-06
-6.47305e-06
-6.53031e-06
-6.58597e-06
-6.64004e-06
-6.69257e-06
-6.74358e-06
-6.7931e-06
-6.84117e-06
-6.88782e-06
-6.93308e-06
-6.97699e-06
-7.01956e-06
-7.06085e-06
-7.10087e-06
-7.13965e-06
-7.17723e-06
-7.21364e-06
-7.24891e-06
-7.28307e-06
-7.31614e-06
-7.34816e-06
-7.37916e-06
-7.40916e-06
-7.4382e-06
-7.4663e-06
-7.49348e-06
-7.51979e-06
-7.54524e-06
-7.56987e-06
-7.59369e-06
-7.61674e-06
-7.63903e-06
-7.66061e-06
-7.68148e-06
-7.70168e-06
-7.72123e-06
-7.74016e-06
-7.75847e-06
-7.77621e-06
-7.79339e-06
-7.81003e-06
-7.82616e-06
-7.84182e-06
-7.85697e-06
-7.87169e-06
-7.88577e-06
-7.89955e-06
-7.91296e-06
-7.92606e-06
-7.93881e-06
-7.95119e-06
-7.96323e-06
-7.97494e-06
-7.98635e-06
-7.99746e-06
-8.0083e-06
-8.01887e-06
-8.0292e-06
-8.03929e-06
-8.04916e-06
-8.05881e-06
-8.06826e-06
-8.07753e-06
-8.08661e-06
-8.09552e-06
-8.10427e-06
-8.11287e-06
-8.12133e-06
-8.12965e-06
-8.13784e-06
-8.14592e-06
-8.15388e-06
-8.16173e-06
-8.16949e-06
-8.17715e-06
-8.18473e-06
-8.19222e-06
-8.19964e-06
-8.20698e-06
-8.21426e-06
-8.22147e-06
-8.22863e-06
-8.23573e-06
-8.24278e-06
-8.24978e-06
-8.25674e-06
-8.26366e-06
-8.27054e-06
-8.27738e-06
-8.28419e-06
-8.29098e-06
-8.29773e-06
-8.30446e-06
-8.31116e-06
-8.31784e-06
-8.32451e-06
-8.33115e-06
-8.33777e-06
-8.34438e-06
-8.35098e-06
-8.35756e-06
-8.36413e-06
-8.37069e-06
-8.37724e-06
-8.38378e-06
-8.39032e-06
-8.39684e-06
-8.40336e-06
-8.40987e-06
-8.41637e-06
-8.42288e-06
-8.42937e-06
-8.43586e-06
-8.44235e-06
-8.44884e-06
-8.45532e-06
-8.4618e-06
-8.46828e-06
-8.47476e-06
-8.48123e-06
-8.4877e-06
-8.49417e-06
-8.50064e-06
-8.50711e-06
-8.51358e-06
-8.52005e-06
-8.52652e-06
-8.53298e-06
-8.53945e-06
-8.54592e-06
-8.55238e-06
-8.55885e-06
-8.56531e-06
-8.57178e-06
-8.57824e-06
-8.58471e-06
-8.59117e-06
-8.59764e-06
-8.6041e-06
-8.61057e-06
-8.61704e-06
-8.6235e-06
-8.62997e-06
-8.63643e-06
-8.6429e-06
-8.64936e-06
-8.65583e-06
-8.6623e-06
-8.66876e-06
-8.67523e-06
-8.6817e-06
-8.68816e-06
-8.69463e-06
-8.7011e-06
-8.70756e-06
-8.71403e-06
-8.7205e-06
-8.72697e-06
-8.73343e-06
-8.7399e-06
-8.74637e-06
-8.75283e-06
-8.7593e-06
-8.76577e-06
-8.77223e-06
-8.7787e-06
-8.78517e-06
-8.79164e-06
-8.7981e-06
-8.80457e-06
-8.81104e-06
-8.8175e-06
-8.82397e-06
-8.83044e-06
-8.8369e-06
-8.84337e-06
-8.84984e-06
-8.8563e-06
-8.86277e-06
-8.86924e-06
-8.8757e-06
-8.88217e-06
-8.88864e-06
-8.8951e-06
-8.90157e-06
-8.90804e-06
-8.9145e-06
-8.92097e-06
-8.92743e-06
-8.9339e-06
-8.94036e-06
-8.94683e-06
-8.95329e-06
-8.95976e-06
-8.96622e-06
-8.97269e-06
-8.97915e-06
-8.98562e-06
-8.99209e-06
-8.99855e-06
-9.00502e-06
-9.01148e-06
-9.01795e-06
-9.02441e-06
-9.03088e-06
-9.03734e-06
-9.04381e-06
-9.05027e-06
-9.05674e-06
-9.06321e-06
-9.06967e-06
-9.07614e-06
-9.08261e-06
-9.08907e-06
-9.09554e-06
-9.10201e-06
-9.10847e-06
-9.11494e-06
-9.12141e-06
-9.12788e-06
-9.13434e-06
-9.14081e-06
-9.14728e-06
-9.15375e-06
-9.16022e-06
-9.16669e-06
-9.17316e-06
-9.17963e-06
-9.1861e-06
-9.19257e-06
-9.19904e-06
-9.20551e-06
-9.21198e-06
-9.21846e-06
-9.22493e-06
-9.2314e-06
-9.23788e-06
-9.24435e-06
-9.25083e-06
-9.2573e-06
-9.26378e-06
-9.27025e-06
-9.27673e-06
-9.28321e-06
-9.28969e-06
-9.29616e-06
-9.30264e-06
-9.30912e-06
-9.3156e-06
-9.32208e-06
-9.32856e-06
-9.33504e-06
-9.34153e-06
-9.34801e-06
-9.35449e-06
-9.36098e-06
-9.36746e-06
-9.37394e-06
-9.38043e-06
-9.38692e-06
-9.3934e-06
-9.39989e-06
-9.40638e-06
-9.41286e-06
-9.41935e-06
-9.42584e-06
-9.43233e-06
-9.43882e-06
-9.44531e-06
-9.4518e-06
-9.45829e-06
-9.46478e-06
-9.47127e-06
-9.47777e-06
-9.48426e-06
-9.49075e-06
-9.49725e-06
-9.50374e-06
-9.51024e-06
-9.51673e-06
-9.52323e-06
-9.52973e-06
-9.53622e-06
-9.54272e-06
-9.54922e-06
-9.55572e-06
-9.56222e-06
-9.56872e-06
-9.57522e-06
-9.58172e-06
-9.58823e-06
-9.59473e-06
-9.60123e-06
-9.60774e-06
-9.61424e-06
-9.62075e-06
-9.62726e-06
-9.63377e-06
-9.64028e-06
-9.64678e-06
-9.6533e-06
-9.65981e-06
-9.66632e-06
-9.67284e-06
-9.67935e-06
-9.68587e-06
-9.69238e-06
-9.6989e-06
-9.70542e-06
-9.71194e-06
-9.71847e-06
-9.72499e-06
-9.73151e-06
-9.73804e-06
-9.74457e-06
-9.7511e-06
-9.75763e-06
-9.76416e-06
-9.77069e-06
-9.77723e-06
-9.78376e-06
-9.7903e-06
-9.79684e-06
-9.80338e-06
-9.80992e-06
-9.81647e-06
-9.82301e-06
-9.82956e-06
-9.83611e-06
-9.84265e-06
-9.84921e-06
-9.85576e-06
-9.86231e-06
-9.86886e-06
-9.87542e-06
-9.88198e-06
-9.88854e-06
-9.8951e-06
-9.90166e-06
-9.90822e-06
-9.91478e-06
-9.92135e-06
-9.92791e-06
-9.93448e-06
-9.94104e-06
-9.94761e-06
-9.95418e-06
-9.96075e-06
-9.96732e-06
-9.97389e-06
-9.98046e-06
-9.98703e-06
-9.9936e-06
-1.00002e-05
-1.00067e-05
-1.00133e-05
-1.00199e-05
-1.00265e-05
-1.0033e-05
-1.00396e-05
-1.00462e-05
-1.00527e-05
-1.00593e-05
-1.00659e-05
-1.00724e-05
-1.0079e-05
-1.00856e-05
-1.00921e-05
-1.00987e-05
-1.01053e-05
-1.01118e-05
-1.01184e-05
-1.0125e-05
-1.01315e-05
-1.01381e-05
-1.01446e-05
-1.01512e-05
-1.01578e-05
-1.01643e-05
-1.01709e-05
-1.01774e-05
-1.0184e-05
-1.01905e-05
-1.01971e-05
-1.02037e-05
-1.02102e-05
-1.02168e-05
-1.02233e-05
-1.02299e-05
-1.02364e-05
-1.0243e-05
-1.02496e-05
-1.02561e-05
-1.02627e-05
-1.02692e-05
-1.02758e-05
-1.02824e-05
-1.02889e-05
-1.02955e-05
-1.0302e-05
-1.03086e-05
-1.03152e-05
-1.03218e-05
-1.03283e-05
-1.03349e-05
-1.03415e-05
-1.03481e-05
-1.03546e-05
-1.03612e-05
-1.03678e-05
-1.03744e-05
-1.0381e-05
-1.03876e-05
-1.03941e-05
-1.04007e-05
-1.04073e-05
-1.04139e-05
-1.04205e-05
-1.04271e-05
-1.04337e-05
-1.04403e-05
-1.04469e-05
-1.04535e-05
-1.04601e-05
-1.04668e-05
-1.04734e-05
-1.048e-05
-1.04866e-05
-1.04932e-05
-1.04998e-05
-1.05064e-05
-1.0513e-05
-1.05197e-05
-1.05263e-05
-1.05329e-05
-1.05395e-05
-1.05461e-05
-1.05527e-05
-1.05594e-05
-1.0566e-05
-1.05726e-05
-1.05792e-05
-1.05858e-05
-1.05925e-05
-1.05991e-05
-1.06057e-05
-1.06123e-05
-1.06189e-05
-1.06256e-05
-1.06322e-05
-1.06388e-05
-1.06454e-05
-1.0652e-05
-1.06587e-05
-1.06653e-05
-1.06719e-05
-1.06785e-05
-1.06852e-05
-1.06918e-05
-1.06984e-05
-1.0705e-05
-1.07116e-05
-1.07183e-05
-1.07249e-05
-1.07315e-05
-1.07381e-05
-1.07448e-05
-1.07514e-05
-1.0758e-05
-1.07647e-05
-1.07713e-05
-1.07779e-05
-1.07846e-05
-1.07912e-05
-1.07978e-05
-1.08045e-05
-1.08111e-05
-1.08177e-05
-1.08244e-05
-1.0831e-05
-1.08377e-05
-1.08443e-05
-1.0851e-05
-1.08576e-05
-1.08643e-05
-1.08709e-05
-1.08776e-05
-1.08843e-05
-1.08909e-05
-1.08976e-05
-1.09043e-05
-1.09109e-05
-1.09176e-05
-1.09243e-05
-1.09309e-05
-1.09376e-05
-1.09443e-05
-1.0951e-05
-1.09576e-05
-1.09643e-05
-1.0971e-05
-1.09777e-05
-1.09844e-05
-1.0991e-05
-1.09977e-05
-1.10044e-05
-1.10111e-05
-1.10178e-05
-1.10244e-05
-1.10311e-05
-1.10378e-05
-1.10445e-05
-1.10511e-05
-1.10578e-05
-1.10645e-05
-1.10712e-05
-1.10778e-05
-1.10845e-05
-1.10912e-05
-1.10978e-05
-1.11045e-05
-1.11111e-05
-1.11178e-05
-1.11244e-05
-1.11311e-05
-1.11377e-05
-1.11444e-05
-1.1151e-05
-1.11577e-05
-1.11643e-05
-1.11709e-05
-1.11776e-05
-1.11842e-05
-1.11908e-05
-1.11975e-05
-1.12041e-05
-1.12108e-05
-1.12174e-05
-1.1224e-05
-1.12307e-05
-1.12373e-05
-1.12439e-05
-1.12506e-05
-1.12572e-05
-1.12639e-05
-1.12705e-05
-1.12772e-05
-1.12839e-05
-1.12905e-05
-1.12972e-05
-1.13039e-05
-1.13106e-05
-1.13172e-05
-1.13239e-05
-1.13306e-05
-1.13373e-05
-1.13441e-05
-1.13508e-05
-1.13575e-05
-1.13642e-05
-1.1371e-05
-1.13777e-05
-1.13845e-05
-1.13912e-05
-1.1398e-05
-1.14048e-05
-1.14115e-05
-1.14183e-05
-1.14251e-05
-1.14319e-05
-1.14387e-05
-1.14455e-05
-1.14523e-05
-1.1459e-05
-1.14658e-05
-1.14726e-05
-1.14794e-05
-1.14862e-05
-1.1493e-05
-1.14998e-05
-1.15066e-05
-1.15133e-05
-1.15201e-05
-1.15269e-05
-1.15336e-05
-1.15404e-05
-1.15471e-05
-1.15539e-05
-1.15606e-05
-1.15673e-05
-1.1574e-05
-1.15807e-05
-1.15874e-05
-1.15941e-05
-1.16008e-05
-1.16075e-05
-1.16141e-05
-1.16208e-05
-1.16275e-05
-1.16341e-05
-1.16408e-05
-1.16474e-05
-1.16541e-05
-1.16607e-05
-1.16674e-05
-1.1674e-05
-1.16807e-05
-1.16873e-05
-1.1694e-05
-1.17007e-05
-1.17073e-05
-1.1714e-05
-1.17207e-05
-1.17274e-05
-1.17341e-05
-1.17409e-05
-1.17476e-05
-1.17544e-05
-1.17611e-05
-1.17679e-05
-1.17747e-05
-1.17815e-05
-1.17883e-05
-1.17951e-05
-1.18019e-05
-1.18087e-05
-1.18156e-05
-1.18224e-05
-1.18293e-05
-1.18361e-05
-1.1843e-05
-1.18498e-05
-1.18567e-05
-1.18635e-05
-1.18704e-05
-1.18772e-05
-1.18841e-05
-1.18909e-05
-1.18978e-05
-1.19046e-05
-1.19114e-05
-1.19182e-05
-1.19251e-05
-1.19319e-05
-1.19386e-05
-1.19454e-05
-1.19522e-05
-1.1959e-05
-1.19657e-05
-1.19725e-05
-1.19792e-05
-1.19859e-05
-1.19927e-05
-1.19994e-05
-1.20061e-05
-1.20128e-05
-1.20195e-05
-1.20262e-05
-1.20329e-05
-1.20396e-05
-1.20463e-05
-1.2053e-05
-1.20597e-05
-1.20663e-05
-1.2073e-05
-1.20797e-05
-1.20864e-05
-1.20931e-05
-1.20998e-05
-1.21065e-05
-1.21132e-05
-1.21199e-05
-1.21266e-05
-1.21333e-05
-1.214e-05
-1.21466e-05
-1.21533e-05
-1.21599e-05
-1.21666e-05
-1.21732e-05
-1.21798e-05
-1.21864e-05
-1.2193e-05
-1.21995e-05
-1.22061e-05
-1.22126e-05
-1.22191e-05
-1.22256e-05
-1.2232e-05
-1.22385e-05
-1.2245e-05
-1.22514e-05
-1.22579e-05
-1.22644e-05
-1.22708e-05
-1.22773e-05
-1.22838e-05
-1.22904e-05
-1.2297e-05
-1.23036e-05
-1.23102e-05
-1.23169e-05
-1.23237e-05
-1.23305e-05
-1.23373e-05
-1.23442e-05
-1.23511e-05
-1.2358e-05
-1.2365e-05
-1.2372e-05
-1.23791e-05
-1.23861e-05
-1.23931e-05
-1.24001e-05
-1.24071e-05
-1.24141e-05
-1.2421e-05
-1.24278e-05
-1.24346e-05
-1.24413e-05
-1.24478e-05
-1.24543e-05
-1.24606e-05
-1.24669e-05
-1.2473e-05
-1.2479e-05
-1.24849e-05
-1.24908e-05
-1.24965e-05
-1.25023e-05
-1.2508e-05
-1.25137e-05
-1.25194e-05
-1.2525e-05
-1.25306e-05
-1.25361e-05
-1.25414e-05
-1.25465e-05
-1.25513e-05
-1.25557e-05
-1.25596e-05
-1.25631e-05
-1.25661e-05
-1.25685e-05
-1.25704e-05
-1.25717e-05
-1.25724e-05
-1.25725e-05
-1.25719e-05
-1.25703e-05
-1.25677e-05
-1.25636e-05
-1.25577e-05
-1.25497e-05
-1.25394e-05
-1.25258e-05
-1.25042e-05
-1.24573e-05
-1.23318e-05
-1.19844e-05
-1.10329e-05
-8.34803e-06
-7.54373e-08
2.98253e-05
0.000237523
0.000447328
0.000638923
0.000792235
0.000899418
0.000966944
0.00100666
0.00102906
0.0010414
0.00104809
0.0010517
0.00105362
0.00105465
0.00105519
0.00105547
0.00105561
0.00105567
0.0010557
0.0010557
0.0010557
0.00105568
0.00105567
0.00105565
0.00105563
0.00105561
0.00105559
0.00105558
0.00105556
0.00105554
0.00105552
0.0010555
0.00105548
0.00105546
0.00105545
0.00105543
0.00105541
0.00105539
0.00105538
0.00105536
0.00105534
0.00105532
0.00105531
0.00105529
0.00105527
0.00105526
0.00105524
0.00105522
0.00105521
0.00105519
0.00105517
0.00105516
0.00105514
0.00105513
0.00105511
0.00105509
0.00105508
0.00105506
0.00105505
0.00105503
0.00105502
0.001055
0.00105499
0.00105497
0.00105496
0.00105494
0.00105493
0.00105492
0.0010549
0.00105489
0.00105488
0.00105486
0.00105485
0.00105483
0.00105482
0.00105481
0.0010548
0.00105478
0.00105477
0.00105476
0.00105474
0.00105473
0.00105472
0.00105471
0.0010547
0.00105468
0.00105467
0.00105466
0.00105465
0.00105464
0.00105463
0.00105461
0.0010546
0.00105459
0.00105458
0.00105457
0.00105456
0.00105455
0.00105454
0.00105453
0.00105452
0.00105451
0.0010545
0.00105449
0.00105448
0.00105447
0.00105446
0.00105445
0.00105444
0.00105443
0.00105442
0.00105441
0.00105441
0.0010544
0.00105439
0.00105438
0.00105437
0.00105436
0.00105436
0.00105435
0.00105434
0.00105433
0.00105433
0.00105432
0.00105431
0.0010543
0.0010543
0.00105429
0.00105428
0.00105428
0.00105427
0.00105426
0.00105426
0.00105425
0.00105425
0.00105424
0.00105423
0.00105423
0.00105422
0.00105422
0.00105421
0.00105421
0.0010542
0.0010542
0.00105419
0.00105419
0.00105418
0.00105418
0.00105417
0.00105417
0.00105417
0.00105416
0.00105416
0.00105415
0.00105415
0.00105415
0.00105414
0.00105414
0.00105414
0.00105413
0.00105413
0.00105413
0.00105413
0.00105412
0.00105412
0.00105412
0.00105412
0.00105411
0.00105411
0.00105411
0.00105411
0.00105411
0.0010541
0.0010541
0.0010541
0.0010541
0.0010541
0.0010541
0.0010541
0.0010541
0.0010541
0.0010541
)
;

boundaryField
{
    fixedWall
    {
        type            calculated;
        value           uniform 0;
    }
    outlet
    {
        type            calculated;
        value           uniform 0.0010541;
    }
    defaultFaces
    {
        type            empty;
    }
}


// ************************************************************************* //
