/*--------------------------------*- C++ -*----------------------------------*\
| =========                 |                                                 |
| \\      /  F ield         | OpenFOAM: The Open Source CFD Toolbox           |
|  \\    /   O peration     | Version:  2406                                  |
|   \\  /    A nd           | Website:  www.openfoam.com                      |
|    \\/     M anipulation  |                                                 |
\*---------------------------------------------------------------------------*/
FoamFile
{
    version     2.0;
    format      ascii;
    arch        "LSB;label=32;scalar=64";
    class       volScalarField;
    location    "5.1";
    object      Qdot;
}
// * * * * * * * * * * * * * * * * * * * * * * * * * * * * * * * * * * * * * //

dimensions      [1 -1 -3 0 0 0 0];

internalField   nonuniform List<scalar> 
1000
(
5.51743e-08
5.51751e-08
3.04217e-08
8.55967e-08
3.61472e-07
1.51505e-06
5.83199e-06
1.84374e-05
4.98683e-05
0.00011857
0.000253709
0.000496958
0.000903847
0.00154325
0.00249566
0.00385025
0.00570049
0.00813961
0.0112554
0.0151253
0.0198122
0.0253608
0.0317948
0.039116
0.0473038
0.0563155
0.0660888
0.0765435
0.0875853
0.0991083
0.110999
0.123142
0.135417
0.147712
0.159915
0.171925
0.18365
0.195008
0.205929
0.216355
0.226241
0.235551
0.244264
0.252367
0.259856
0.266736
0.273021
0.278728
0.283882
0.288509
0.292639
0.296307
0.299544
0.302386
0.304867
0.307021
0.308881
0.310478
0.311844
0.313006
0.31399
0.314823
0.315527
0.316123
0.31663
0.317065
0.317444
0.31778
0.318087
0.318374
0.318651
0.318926
0.319206
0.319498
0.319806
0.320133
0.320485
0.320862
0.321268
0.321703
0.322169
0.322666
0.323195
0.323755
0.324346
0.324968
0.32562
0.326301
0.32701
0.327746
0.328508
0.329295
0.330106
0.330939
0.331793
0.332668
0.333561
0.334472
0.3354
0.336342
0.337296
0.338264
0.339244
0.340242
0.34125
0.342269
0.343296
0.344332
0.345377
0.346429
0.347489
0.348555
0.349627
0.350705
0.351789
0.352878
0.353972
0.35507
0.356173
0.35728
0.358392
0.359507
0.360626
0.361749
0.362875
0.364005
0.365139
0.366276
0.367417
0.368561
0.369709
0.37086
0.372015
0.373174
0.374336
0.375502
0.376671
0.377845
0.379022
0.380203
0.381388
0.382578
0.383771
0.384969
0.386171
0.387377
0.388588
0.389803
0.391023
0.392247
0.393477
0.394711
0.39595
0.397194
0.398443
0.399697
0.400957
0.402222
0.403492
0.404767
0.406048
0.407335
0.408627
0.409923
0.411216
0.412526
0.413842
0.415165
0.416493
0.417827
0.419168
0.420514
0.421867
0.423225
0.42459
0.425962
0.42734
0.428724
0.430114
0.431512
0.432916
0.434326
0.435744
0.437168
0.438599
0.440037
0.441481
0.442933
0.444392
0.445858
0.447331
0.448811
0.450299
0.451794
0.453296
0.454805
0.456322
0.457847
0.459379
0.460918
0.462465
0.46402
0.465583
0.467153
0.468731
0.470317
0.471911
0.473512
0.475122
0.47674
0.478366
0.48
0.481642
0.483293
0.484951
0.486618
0.488294
0.489978
0.49167
0.493371
0.495081
0.496799
0.498526
0.500262
0.502007
0.50376
0.505523
0.507294
0.509074
0.510864
0.512663
0.514471
0.516288
0.518114
0.51995
0.521796
0.523651
0.525515
0.52739
0.529273
0.531167
0.533071
0.534984
0.536908
0.538841
0.540785
0.542738
0.544702
0.546677
0.548661
0.550656
0.552662
0.554678
0.556705
0.558743
0.560792
0.562851
0.564921
0.567003
0.569095
0.571199
0.573314
0.575441
0.577579
0.579728
0.58189
0.584062
0.586247
0.588444
0.590652
0.592873
0.595106
0.597351
0.599609
0.601879
0.604161
0.606457
0.608765
0.611085
0.613419
0.615766
0.618127
0.6205
0.622887
0.625288
0.627702
0.63013
0.632572
0.635027
0.637497
0.639981
0.64248
0.644993
0.647521
0.650063
0.65262
0.655192
0.65778
0.660381
0.662977
0.665611
0.668261
0.670926
0.673607
0.676304
0.679018
0.681748
0.684494
0.687257
0.690036
0.692833
0.695646
0.698476
0.701324
0.704189
0.707072
0.709972
0.71289
0.715826
0.71878
0.721752
0.724742
0.727751
0.730779
0.733825
0.73689
0.739974
0.743077
0.7462
0.749342
0.752503
0.755685
0.758886
0.762107
0.765349
0.76861
0.771893
0.775196
0.77852
0.781864
0.78523
0.788617
0.792026
0.795457
0.798909
0.802383
0.805879
0.809398
0.812939
0.816503
0.820091
0.823701
0.827334
0.830991
0.834672
0.838377
0.842106
0.84586
0.849638
0.853441
0.857269
0.861122
0.865002
0.868907
0.872838
0.876795
0.880779
0.88479
0.888829
0.892894
0.896988
0.901109
0.905259
0.909437
0.913644
0.917881
0.922147
0.926443
0.930769
0.935125
0.939513
0.943931
0.948381
0.952863
0.957377
0.961923
0.966503
0.971115
0.975761
0.980441
0.985155
0.989903
0.994686
0.999505
1.00436
1.00925
1.01417
1.01913
1.02409
1.02913
1.03421
1.03932
1.04447
1.04967
1.0549
1.06017
1.06548
1.07084
1.07623
1.08167
1.08715
1.09267
1.09823
1.10384
1.10948
1.11518
1.12091
1.1267
1.13252
1.13839
1.14431
1.15027
1.15628
1.16234
1.16844
1.17459
1.18079
1.18704
1.19334
1.19968
1.20608
1.21252
1.21902
1.22557
1.23217
1.23882
1.24552
1.25228
1.25909
1.26595
1.27287
1.27985
1.28688
1.29396
1.30111
1.30828
1.31548
1.3228
1.33018
1.33762
1.34512
1.35269
1.36031
1.368
1.37576
1.38358
1.39146
1.39941
1.40744
1.41552
1.42368
1.43191
1.44021
1.44858
1.45703
1.46555
1.47415
1.48282
1.49156
1.50039
1.5093
1.51828
1.52735
1.5365
1.54573
1.55505
1.56445
1.57394
1.58351
1.59318
1.60293
1.61278
1.62271
1.63274
1.64286
1.65308
1.6634
1.67381
1.68432
1.69493
1.70564
1.71645
1.72737
1.73839
1.74947
1.76062
1.77198
1.78345
1.79502
1.80671
1.81851
1.83042
1.84245
1.8546
1.86686
1.87925
1.89176
1.90439
1.91715
1.93004
1.94306
1.9562
1.96948
1.9829
1.99645
2.0101
2.02381
2.03778
2.05189
2.06614
2.08054
2.0951
2.1098
2.12466
2.13968
2.15485
2.17019
2.18569
2.20136
2.21719
2.2332
2.24938
2.26574
2.28227
2.29899
2.3159
2.33299
2.35028
2.36768
2.38519
2.40305
2.4211
2.43936
2.45782
2.47649
2.49538
2.51448
2.53381
2.55336
2.57315
2.59316
2.61341
2.63391
2.65465
2.67563
2.69687
2.71837
2.74013
2.76216
2.78445
2.80702
2.82987
2.85301
2.87643
2.90014
2.92416
2.94847
2.97309
2.99802
3.02327
3.04885
3.07475
3.10098
3.12754
3.15446
3.18171
3.20933
3.2373
3.26563
3.29434
3.32342
3.35288
3.38273
3.41292
3.4433
3.47434
3.50578
3.53765
3.56995
3.60268
3.63586
3.66949
3.70358
3.73813
3.77317
3.80868
3.84469
3.88121
3.91823
3.95578
3.99386
4.03248
4.07166
4.1114
4.15172
4.19263
4.23415
4.27627
4.31902
4.36242
4.40646
4.45118
4.49658
4.54268
4.58949
4.63704
4.68533
4.73438
4.78422
4.83485
4.8863
4.93858
4.9917
5.04567
5.10007
5.15586
5.21258
5.27026
5.32893
5.3886
5.4493
5.51105
5.57386
5.63778
5.7028
5.76897
5.8363
5.90483
5.97457
6.04556
6.11781
6.19137
6.26625
6.34249
6.42011
6.49915
6.57963
6.6616
6.74507
6.8301
6.91671
7.00494
7.09483
7.18643
7.27977
7.37491
7.47116
7.56917
7.66994
7.77267
7.87741
7.98424
8.09321
8.20438
8.31782
8.4336
8.55179
8.67246
8.79569
8.92155
9.05014
9.18153
9.31581
9.45308
9.59342
9.73693
9.88372
10.0339
10.1875
10.3448
10.5057
10.6702
10.8375
11.0102
11.1872
11.3685
11.5542
11.7446
11.9398
12.1399
12.3451
12.5556
12.7716
12.9931
13.2205
13.4539
13.6935
13.9396
14.1923
14.4519
14.7187
14.9929
15.2747
15.5646
15.8627
16.1694
16.485
16.8098
17.1443
17.4887
17.8436
18.2092
18.5861
18.9748
19.3756
19.7893
20.2162
20.6571
21.1124
21.583
22.0695
22.5726
23.0931
23.632
24.19
24.7682
25.3674
25.9877
26.6259
27.2932
27.9854
28.7041
29.4506
30.2262
31.0325
31.871
32.7433
33.6512
34.5966
35.5813
36.6077
37.6779
38.7945
39.9602
41.1777
42.4502
43.7812
45.1743
46.6334
48.163
49.7677
51.4527
53.2237
55.0867
57.0483
59.1159
61.2974
63.6013
66.0371
68.6152
71.347
74.2449
77.3229
80.5965
84.0527
87.7355
91.7001
95.9369
100.472
105.333
110.552
116.164
122.209
128.732
135.783
143.418
151.704
160.713
170.532
181.258
193.007
205.91
220.124
235.833
253.251
272.635
294.287
318.568
345.913
376.844
411.995
452.144
498.249
551.509
613.43
685.938
771.524
873.472
996.169
1144.67
1327.22
1556.27
1844.67
2218.81
2711.92
3378.76
4307.87
5650.62
7682.49
10940
16549.8
27096.8
49165.7
101571
244911
706921
2.40046e+06
9.36257e+06
5.97392e+07
911164
3355.62
18.1624
0.338142
0.0240942
0.00486809
0.00194613
0.00116922
0.000885154
0.000761493
0.000702192
0.000672305
0.000656804
0.000648654
0.000644389
0.000642108
0.000640849
0.000640216
0.000639841
0.000639719
0.000639618
0.000639567
0.000639544
0.000639535
0.000639534
0.000639537
0.000639544
0.00063955
0.000639557
0.000639564
0.000639571
0.000639577
0.000639583
0.000639592
0.000639599
0.000639607
0.00063954
0.000639546
0.000639629
0.000639638
0.000639648
0.000639655
0.000639661
0.00063967
0.000639678
0.000639688
0.000639694
0.000639701
0.000639708
0.000639716
0.000639722
0.000639656
0.000639741
0.000639748
0.000639758
0.000639764
0.000639773
0.000639783
0.000639791
0.000639796
0.000639805
0.000639812
0.000639821
0.000639827
0.000639835
0.000639844
0.000639849
0.000639859
0.000639865
0.000639872
0.000639881
0.000639889
0.000639823
0.00063983
0.000639838
0.000639844
0.000639851
0.00063986
0.000639867
0.000639875
0.000639882
0.000639891
0.0006399
0.000639905
0.000639914
0.000639924
0.000639933
0.00063994
0.000639945
0.000639957
0.000639964
0.00063997
0.000639977
0.000639987
0.000639995
0.000640003
0.00064001
0.00064002
0.000640028
0.000640035
0.000640043
0.000640051
0.000640059
0.000640067
0.000640075
0.000640083
0.000640089
0.000640098
0.000640107
0.000640116
0.000640123
0.00064013
0.000640139
0.000640146
0.000640151
0.00064016
0.000640169
0.000640176
0.000640185
0.000640191
0.0006402
0.000640206
0.000640214
0.000640222
0.000640228
0.000640237
0.000640244
0.000640251
0.000640258
0.000640266
0.000640275
0.000640283
0.000640292
0.000640298
0.000640306
0.000640314
0.000640322
0.000640329
0.000640338
0.000640345
0.000640354
0.000640362
0.00064037
0.000640379
0.000640385
0.000640395
0.000640403
0.000640413
0.00064042
0.000640428
0.000640435
0.000640443
0.00064045
0.000640457
0.000640466
0.000640474
0.000640484
0.000640492
0.0006405
0.000640508
0.000640518
0.000640525
0.000640534
0.000640542
0.000640551
0.000640559
0.000640567
0.000640576
0.000640584
0.000640593
0.000640602
0.000640536
0.000640544
0.000640553
0.00064056
0.000640566
0.000640647
0.000640579
0.000640587
0.000640593
0.000640601
)
;

boundaryField
{
    fixedWall
    {
        type            calculated;
        value           uniform 0;
    }
    outlet
    {
        type            calculated;
        value           uniform 0;
    }
    defaultFaces
    {
        type            empty;
    }
}


// ************************************************************************* //
