/*--------------------------------*- C++ -*----------------------------------*\
| =========                 |                                                 |
| \\      /  F ield         | OpenFOAM: The Open Source CFD Toolbox           |
|  \\    /   O peration     | Version:  2406                                  |
|   \\  /    A nd           | Website:  www.openfoam.com                      |
|    \\/     M anipulation  |                                                 |
\*---------------------------------------------------------------------------*/
FoamFile
{
    version     2.0;
    format      ascii;
    arch        "LSB;label=32;scalar=64";
    class       volScalarField;
    location    "5.1";
    object      T;
}
// * * * * * * * * * * * * * * * * * * * * * * * * * * * * * * * * * * * * * //

dimensions      [0 0 0 1 0 0 0];

internalField   nonuniform List<scalar> 
1000
(
311.414
344.236
373.801
400.773
425.609
448.644
470.132
490.27
509.214
527.092
544.01
560.056
575.305
589.821
603.66
616.869
629.491
641.564
653.121
664.192
674.804
684.981
694.746
704.119
713.118
721.762
730.065
738.043
745.709
753.077
760.158
766.963
773.504
779.791
785.833
791.64
797.219
802.58
807.73
812.677
817.428
821.99
826.369
830.573
834.606
838.476
842.188
845.748
849.16
852.43
855.564
858.565
861.438
864.189
866.822
869.34
871.748
874.05
876.25
878.351
880.358
882.273
884.101
885.844
887.506
889.091
890.6
892.037
893.405
894.706
895.944
897.121
898.239
899.301
900.31
901.267
902.174
903.034
903.85
904.622
905.353
906.045
906.699
907.318
907.902
908.454
908.974
909.466
909.929
910.366
910.777
911.164
911.528
911.871
912.193
912.495
912.779
913.045
913.295
913.529
913.747
913.952
914.143
914.323
914.491
914.648
914.794
914.931
915.058
915.177
915.287
915.39
915.485
915.574
915.656
915.733
915.804
915.869
915.93
915.986
916.038
916.086
916.131
916.172
916.21
916.244
916.276
916.306
916.333
916.358
916.38
916.401
916.42
916.438
916.454
916.468
916.482
916.494
916.505
916.515
916.524
916.532
916.539
916.546
916.552
916.557
916.562
916.567
916.57
916.574
916.577
916.58
916.582
916.584
916.586
916.587
916.589
916.59
916.591
916.591
916.592
916.593
916.593
916.593
916.593
916.593
916.593
916.593
916.593
916.592
916.592
916.591
916.591
916.59
916.59
916.589
916.588
916.588
916.587
916.586
916.585
916.585
916.584
916.583
916.582
916.581
916.58
916.579
916.578
916.577
916.576
916.575
916.574
916.573
916.572
916.571
916.569
916.568
916.567
916.566
916.565
916.563
916.562
916.561
916.56
916.559
916.557
916.556
916.555
916.553
916.552
916.551
916.55
916.548
916.547
916.546
916.544
916.543
916.542
916.54
916.539
916.538
916.536
916.535
916.534
916.532
916.531
916.53
916.528
916.527
916.526
916.524
916.523
916.522
916.52
916.519
916.518
916.517
916.515
916.514
916.513
916.512
916.51
916.509
916.508
916.507
916.506
916.505
916.504
916.502
916.501
916.5
916.499
916.498
916.497
916.496
916.495
916.494
916.493
916.492
916.492
916.491
916.49
916.489
916.488
916.488
916.487
916.486
916.485
916.485
916.484
916.483
916.483
916.482
916.482
916.481
916.48
916.48
916.48
916.479
916.479
916.478
916.478
916.477
916.477
916.477
916.477
916.476
916.476
916.476
916.476
916.475
916.475
916.475
916.475
916.475
916.475
916.475
916.475
916.475
916.475
916.475
916.475
916.475
916.475
916.475
916.475
916.475
916.475
916.476
916.476
916.476
916.476
916.476
916.477
916.477
916.477
916.477
916.478
916.478
916.478
916.479
916.479
916.48
916.48
916.48
916.481
916.481
916.482
916.482
916.483
916.483
916.484
916.484
916.485
916.485
916.486
916.486
916.487
916.488
916.488
916.489
916.489
916.49
916.491
916.491
916.492
916.493
916.493
916.494
916.495
916.495
916.496
916.497
916.498
916.498
916.499
916.5
916.501
916.501
916.502
916.503
916.504
916.504
916.505
916.506
916.506
916.507
916.508
916.509
916.509
916.51
916.511
916.511
916.512
916.513
916.513
916.514
916.514
916.515
916.516
916.516
916.517
916.517
916.517
916.518
916.518
916.519
916.519
916.519
916.52
916.52
916.52
916.52
916.52
916.521
916.521
916.521
916.521
916.521
916.521
916.521
916.521
916.52
916.52
916.52
916.52
916.52
916.519
916.519
916.519
916.518
916.518
916.518
916.517
916.517
916.516
916.516
916.515
916.515
916.514
916.514
916.514
916.513
916.513
916.512
916.512
916.511
916.511
916.51
916.51
916.509
916.509
916.509
916.508
916.508
916.508
916.508
916.507
916.507
916.507
916.507
916.507
916.506
916.506
916.506
916.506
916.506
916.506
916.507
916.507
916.507
916.507
916.507
916.507
916.508
916.508
916.508
916.508
916.509
916.509
916.509
916.51
916.51
916.51
916.511
916.511
916.511
916.512
916.512
916.512
916.513
916.513
916.513
916.514
916.514
916.514
916.515
916.515
916.515
916.515
916.516
916.516
916.516
916.516
916.516
916.516
916.517
916.517
916.517
916.517
916.517
916.517
916.517
916.517
916.517
916.517
916.517
916.517
916.517
916.517
916.517
916.517
916.517
916.517
916.517
916.517
916.517
916.517
916.516
916.516
916.516
916.516
916.516
916.516
916.516
916.516
916.516
916.516
916.516
916.516
916.516
916.516
916.517
916.517
916.517
916.517
916.517
916.517
916.517
916.517
916.517
916.517
916.517
916.517
916.517
916.517
916.517
916.517
916.517
916.517
916.517
916.517
916.517
916.517
916.517
916.517
916.517
916.516
916.516
916.516
916.516
916.515
916.515
916.515
916.514
916.514
916.513
916.513
916.512
916.512
916.511
916.511
916.51
916.51
916.509
916.508
916.508
916.507
916.507
916.506
916.505
916.505
916.504
916.504
916.503
916.503
916.502
916.502
916.502
916.501
916.501
916.501
916.501
916.501
916.501
916.501
916.501
916.501
916.502
916.502
916.503
916.503
916.504
916.505
916.505
916.506
916.507
916.508
916.509
916.51
916.511
916.512
916.514
916.515
916.516
916.517
916.518
916.52
916.521
916.522
916.523
916.524
916.525
916.526
916.527
916.528
916.529
916.53
916.53
916.531
916.531
916.532
916.532
916.532
916.532
916.532
916.532
916.531
916.531
916.53
916.53
916.529
916.528
916.527
916.526
916.525
916.523
916.522
916.521
916.52
916.518
916.517
916.516
916.514
916.513
916.512
916.511
916.51
916.509
916.508
916.507
916.506
916.506
916.505
916.505
916.505
916.505
916.505
916.505
916.506
916.506
916.507
916.508
916.508
916.509
916.51
916.511
916.513
916.514
916.515
916.516
916.517
916.518
916.519
916.52
916.521
916.522
916.522
916.523
916.523
916.524
916.524
916.524
916.523
916.523
916.522
916.522
916.521
916.52
916.519
916.517
916.516
916.514
916.513
916.511
916.509
916.507
916.506
916.504
916.502
916.5
916.498
916.496
916.494
916.492
916.49
916.488
916.486
916.485
916.483
916.482
916.48
916.479
916.478
916.477
916.476
916.475
916.474
916.473
916.473
916.472
916.472
916.471
916.471
916.471
916.471
916.47
916.47
916.47
916.471
916.471
916.471
916.472
916.472
916.473
916.474
916.475
916.477
916.478
916.48
916.483
916.485
916.488
916.491
916.495
916.498
916.502
916.507
916.511
916.516
916.521
916.526
916.531
916.536
916.541
916.546
916.551
916.555
916.559
916.562
916.565
916.567
916.569
916.57
916.57
916.569
916.567
916.565
916.562
916.558
916.553
916.548
916.542
916.536
916.529
916.522
916.516
916.509
916.502
916.496
916.49
916.484
916.479
916.474
916.47
916.465
916.46
916.456
916.451
916.446
916.441
916.436
916.431
916.426
916.422
916.418
916.416
916.415
916.416
916.417
916.419
916.422
916.424
916.425
916.423
916.416
916.4
916.371
916.318
916.227
916.072
915.824
915.462
914.984
914.381
913.283
909.037
885.827
646.944
496.465
406.729
355.343
326.789
311.195
302.759
298.218
295.781
294.474
293.775
293.401
293.2
293.093
293.036
293.006
292.989
292.981
292.976
292.974
292.972
292.972
292.971
292.971
292.971
292.971
292.971
292.971
292.971
292.971
292.971
292.971
292.972
292.972
292.972
292.972
292.972
292.972
292.972
292.972
292.972
292.972
292.972
292.972
292.972
292.972
292.972
292.973
292.973
292.973
292.973
292.973
292.973
292.973
292.973
292.973
292.973
292.973
292.973
292.973
292.973
292.974
292.974
292.974
292.974
292.974
292.974
292.974
292.974
292.974
292.974
292.974
292.974
292.974
292.974
292.974
292.975
292.975
292.975
292.975
292.975
292.975
292.975
292.975
292.975
292.975
292.975
292.975
292.975
292.975
292.976
292.976
292.976
292.976
292.976
292.976
292.976
292.976
292.976
292.976
292.976
292.976
292.976
292.976
292.976
292.977
292.977
292.977
292.977
292.977
292.977
292.977
292.977
292.977
292.977
292.977
292.977
292.977
292.977
292.978
292.978
292.978
292.978
292.978
292.978
292.978
292.978
292.978
292.978
292.978
292.978
292.978
292.978
292.978
292.978
292.979
292.979
292.979
292.979
292.979
292.979
292.979
292.979
292.979
292.979
292.979
292.979
292.979
292.98
292.98
292.98
292.98
292.98
292.98
292.98
292.98
292.98
292.98
292.98
292.98
292.98
292.98
292.98
292.981
292.981
292.981
292.981
292.981
292.981
292.981
292.981
292.981
292.981
292.981
292.981
292.981
292.982
292.982
292.982
292.982
292.982
)
;

boundaryField
{
    fixedWall
    {
        type            fixedValue;
        value           uniform 293;
    }
    outlet
    {
        type            inletOutlet;
        inletValue      uniform 293;
        value           uniform 292.982;
    }
    defaultFaces
    {
        type            empty;
    }
}


// ************************************************************************* //
