/*--------------------------------*- C++ -*----------------------------------*\
| =========                 |                                                 |
| \\      /  F ield         | OpenFOAM: The Open Source CFD Toolbox           |
|  \\    /   O peration     | Version:  2406                                  |
|   \\  /    A nd           | Website:  www.openfoam.com                      |
|    \\/     M anipulation  |                                                 |
\*---------------------------------------------------------------------------*/
FoamFile
{
    version     2.0;
    format      ascii;
    arch        "LSB;label=32;scalar=64";
    class       volVectorField;
    location    "5.1";
    object      U;
}
// * * * * * * * * * * * * * * * * * * * * * * * * * * * * * * * * * * * * * //

dimensions      [0 1 -1 0 0 0 0];

internalField   nonuniform List<vector> 
1000
(
(-3.94029e-06 0 0)
(-1.69162e-05 0 0)
(-3.95977e-05 0 0)
(-6.86665e-05 0 0)
(-0.000102396 0 0)
(-0.000139759 0 0)
(-0.000180035 0 0)
(-0.00022265 0 0)
(-0.000267141 0 0)
(-0.000313138 0 0)
(-0.000360336 0 0)
(-0.000408482 0 0)
(-0.000457362 0 0)
(-0.000506796 0 0)
(-0.000556628 0 0)
(-0.000606722 0 0)
(-0.00065696 0 0)
(-0.000707238 0 0)
(-0.000757464 0 0)
(-0.000807555 0 0)
(-0.000857439 0 0)
(-0.000907048 0 0)
(-0.000956325 0 0)
(-0.00100522 0 0)
(-0.00105367 0 0)
(-0.00110165 0 0)
(-0.00114912 0 0)
(-0.00119603 0 0)
(-0.00124236 0 0)
(-0.00128807 0 0)
(-0.00133314 0 0)
(-0.00137756 0 0)
(-0.00142128 0 0)
(-0.00146431 0 0)
(-0.00150662 0 0)
(-0.0015482 0 0)
(-0.00158903 0 0)
(-0.00162911 0 0)
(-0.00166842 0 0)
(-0.00170696 0 0)
(-0.00174472 0 0)
(-0.0017817 0 0)
(-0.0018179 0 0)
(-0.0018533 0 0)
(-0.00188792 0 0)
(-0.00192175 0 0)
(-0.0019548 0 0)
(-0.00198706 0 0)
(-0.00201853 0 0)
(-0.00204924 0 0)
(-0.00207917 0 0)
(-0.00210833 0 0)
(-0.00213674 0 0)
(-0.00216439 0 0)
(-0.0021913 0 0)
(-0.00221748 0 0)
(-0.00224293 0 0)
(-0.00226766 0 0)
(-0.00229168 0 0)
(-0.00231501 0 0)
(-0.00233766 0 0)
(-0.00235963 0 0)
(-0.00238095 0 0)
(-0.00240161 0 0)
(-0.00242163 0 0)
(-0.00244104 0 0)
(-0.00245983 0 0)
(-0.00247802 0 0)
(-0.00249563 0 0)
(-0.00251266 0 0)
(-0.00252914 0 0)
(-0.00254507 0 0)
(-0.00256047 0 0)
(-0.00257536 0 0)
(-0.00258974 0 0)
(-0.00260363 0 0)
(-0.00261704 0 0)
(-0.00262999 0 0)
(-0.00264249 0 0)
(-0.00265456 0 0)
(-0.0026662 0 0)
(-0.00267743 0 0)
(-0.00268827 0 0)
(-0.00269872 0 0)
(-0.00270881 0 0)
(-0.00271853 0 0)
(-0.00272791 0 0)
(-0.00273695 0 0)
(-0.00274568 0 0)
(-0.00275409 0 0)
(-0.00276221 0 0)
(-0.00277003 0 0)
(-0.00277759 0 0)
(-0.00278487 0 0)
(-0.0027919 0 0)
(-0.00279869 0 0)
(-0.00280525 0 0)
(-0.00281159 0 0)
(-0.00281771 0 0)
(-0.00282359 0 0)
(-0.00282925 0 0)
(-0.00283476 0 0)
(-0.0028401 0 0)
(-0.0028453 0 0)
(-0.00285033 0 0)
(-0.0028552 0 0)
(-0.00285992 0 0)
(-0.00286449 0 0)
(-0.00286893 0 0)
(-0.00287324 0 0)
(-0.00287743 0 0)
(-0.0028815 0 0)
(-0.00288547 0 0)
(-0.00288933 0 0)
(-0.0028931 0 0)
(-0.00289677 0 0)
(-0.00290035 0 0)
(-0.00290386 0 0)
(-0.00290728 0 0)
(-0.00291063 0 0)
(-0.00291391 0 0)
(-0.00291713 0 0)
(-0.00292029 0 0)
(-0.00292339 0 0)
(-0.00292643 0 0)
(-0.00292942 0 0)
(-0.00293237 0 0)
(-0.00293526 0 0)
(-0.00293812 0 0)
(-0.00294094 0 0)
(-0.00294372 0 0)
(-0.00294647 0 0)
(-0.00294918 0 0)
(-0.00295187 0 0)
(-0.00295452 0 0)
(-0.00295715 0 0)
(-0.00295976 0 0)
(-0.00296234 0 0)
(-0.00296489 0 0)
(-0.00296745 0 0)
(-0.00296998 0 0)
(-0.0029724 0 0)
(-0.00297505 0 0)
(-0.00297746 0 0)
(-0.00297983 0 0)
(-0.0029824 0 0)
(-0.00298478 0 0)
(-0.00298722 0 0)
(-0.00298964 0 0)
(-0.00299205 0 0)
(-0.00299445 0 0)
(-0.00299685 0 0)
(-0.00299924 0 0)
(-0.00300162 0 0)
(-0.00300399 0 0)
(-0.00300636 0 0)
(-0.00300873 0 0)
(-0.00301109 0 0)
(-0.00301344 0 0)
(-0.0030158 0 0)
(-0.00301815 0 0)
(-0.00302049 0 0)
(-0.00302284 0 0)
(-0.00302518 0 0)
(-0.00302751 0 0)
(-0.00302985 0 0)
(-0.00303219 0 0)
(-0.00303452 0 0)
(-0.00303685 0 0)
(-0.00303918 0 0)
(-0.00304151 0 0)
(-0.00304384 0 0)
(-0.00304617 0 0)
(-0.00304849 0 0)
(-0.00305082 0 0)
(-0.00305314 0 0)
(-0.00305547 0 0)
(-0.00305779 0 0)
(-0.00306012 0 0)
(-0.00306244 0 0)
(-0.00306476 0 0)
(-0.00306708 0 0)
(-0.00306941 0 0)
(-0.00307173 0 0)
(-0.00307405 0 0)
(-0.00307637 0 0)
(-0.00307869 0 0)
(-0.00308101 0 0)
(-0.00308334 0 0)
(-0.00308566 0 0)
(-0.00308798 0 0)
(-0.0030903 0 0)
(-0.00309262 0 0)
(-0.00309494 0 0)
(-0.00309726 0 0)
(-0.00309958 0 0)
(-0.00310191 0 0)
(-0.00310423 0 0)
(-0.00310655 0 0)
(-0.00310887 0 0)
(-0.00311119 0 0)
(-0.00311351 0 0)
(-0.00311583 0 0)
(-0.00311815 0 0)
(-0.00312047 0 0)
(-0.00312279 0 0)
(-0.00312511 0 0)
(-0.00312744 0 0)
(-0.00312976 0 0)
(-0.00313208 0 0)
(-0.0031344 0 0)
(-0.00313672 0 0)
(-0.00313904 0 0)
(-0.00314136 0 0)
(-0.00314368 0 0)
(-0.003146 0 0)
(-0.00314832 0 0)
(-0.00315064 0 0)
(-0.00315296 0 0)
(-0.00315529 0 0)
(-0.00315761 0 0)
(-0.00315993 0 0)
(-0.00316225 0 0)
(-0.00316457 0 0)
(-0.00316689 0 0)
(-0.00316921 0 0)
(-0.00317153 0 0)
(-0.00317385 0 0)
(-0.00317617 0 0)
(-0.00317849 0 0)
(-0.00318081 0 0)
(-0.00318313 0 0)
(-0.00318545 0 0)
(-0.00318777 0 0)
(-0.00319009 0 0)
(-0.00319241 0 0)
(-0.00319474 0 0)
(-0.00319706 0 0)
(-0.00319938 0 0)
(-0.0032017 0 0)
(-0.00320402 0 0)
(-0.00320634 0 0)
(-0.00320866 0 0)
(-0.00321098 0 0)
(-0.0032133 0 0)
(-0.00321562 0 0)
(-0.00321794 0 0)
(-0.00322026 0 0)
(-0.00322258 0 0)
(-0.0032249 0 0)
(-0.00322722 0 0)
(-0.00322954 0 0)
(-0.00323187 0 0)
(-0.00323419 0 0)
(-0.00323651 0 0)
(-0.00323883 0 0)
(-0.00324115 0 0)
(-0.00324347 0 0)
(-0.00324579 0 0)
(-0.00324811 0 0)
(-0.00325043 0 0)
(-0.00325276 0 0)
(-0.00325508 0 0)
(-0.0032574 0 0)
(-0.00325972 0 0)
(-0.00326204 0 0)
(-0.00326437 0 0)
(-0.00326669 0 0)
(-0.00326901 0 0)
(-0.00327133 0 0)
(-0.00327366 0 0)
(-0.00327598 0 0)
(-0.0032783 0 0)
(-0.00328063 0 0)
(-0.00328295 0 0)
(-0.00328527 0 0)
(-0.0032876 0 0)
(-0.00328992 0 0)
(-0.00329224 0 0)
(-0.00329457 0 0)
(-0.00329689 0 0)
(-0.00329922 0 0)
(-0.00330154 0 0)
(-0.00330387 0 0)
(-0.00330619 0 0)
(-0.00330852 0 0)
(-0.00331084 0 0)
(-0.00331317 0 0)
(-0.0033155 0 0)
(-0.00331782 0 0)
(-0.00332015 0 0)
(-0.00332248 0 0)
(-0.0033248 0 0)
(-0.00332713 0 0)
(-0.00332946 0 0)
(-0.00333179 0 0)
(-0.00333412 0 0)
(-0.00333644 0 0)
(-0.00333877 0 0)
(-0.0033411 0 0)
(-0.00334343 0 0)
(-0.00334576 0 0)
(-0.00334809 0 0)
(-0.00335042 0 0)
(-0.00335275 0 0)
(-0.00335508 0 0)
(-0.00335741 0 0)
(-0.00335974 0 0)
(-0.00336207 0 0)
(-0.00336441 0 0)
(-0.00336674 0 0)
(-0.00336907 0 0)
(-0.0033714 0 0)
(-0.00337373 0 0)
(-0.00337607 0 0)
(-0.0033784 0 0)
(-0.00338073 0 0)
(-0.00338307 0 0)
(-0.0033854 0 0)
(-0.00338773 0 0)
(-0.00339007 0 0)
(-0.0033924 0 0)
(-0.00339474 0 0)
(-0.00339707 0 0)
(-0.00339941 0 0)
(-0.00340174 0 0)
(-0.00340408 0 0)
(-0.00340642 0 0)
(-0.00340875 0 0)
(-0.00341109 0 0)
(-0.00341342 0 0)
(-0.00341576 0 0)
(-0.0034181 0 0)
(-0.00342044 0 0)
(-0.00342277 0 0)
(-0.00342511 0 0)
(-0.00342745 0 0)
(-0.00342979 0 0)
(-0.00343213 0 0)
(-0.00343446 0 0)
(-0.0034368 0 0)
(-0.00343914 0 0)
(-0.00344148 0 0)
(-0.00344382 0 0)
(-0.00344616 0 0)
(-0.0034485 0 0)
(-0.00345084 0 0)
(-0.00345319 0 0)
(-0.00345553 0 0)
(-0.00345787 0 0)
(-0.00346021 0 0)
(-0.00346255 0 0)
(-0.0034649 0 0)
(-0.00346724 0 0)
(-0.00346958 0 0)
(-0.00347193 0 0)
(-0.00347427 0 0)
(-0.00347662 0 0)
(-0.00347896 0 0)
(-0.00348131 0 0)
(-0.00348365 0 0)
(-0.003486 0 0)
(-0.00348834 0 0)
(-0.00349069 0 0)
(-0.00349304 0 0)
(-0.00349539 0 0)
(-0.00349774 0 0)
(-0.00350009 0 0)
(-0.00350243 0 0)
(-0.00350478 0 0)
(-0.00350713 0 0)
(-0.00350949 0 0)
(-0.00351184 0 0)
(-0.00351419 0 0)
(-0.00351654 0 0)
(-0.00351889 0 0)
(-0.00352125 0 0)
(-0.0035236 0 0)
(-0.00352595 0 0)
(-0.00352831 0 0)
(-0.00353066 0 0)
(-0.00353302 0 0)
(-0.00353538 0 0)
(-0.00353773 0 0)
(-0.00354009 0 0)
(-0.00354245 0 0)
(-0.0035448 0 0)
(-0.00354716 0 0)
(-0.00354952 0 0)
(-0.00355188 0 0)
(-0.00355424 0 0)
(-0.0035566 0 0)
(-0.00355896 0 0)
(-0.00356132 0 0)
(-0.00356368 0 0)
(-0.00356604 0 0)
(-0.0035684 0 0)
(-0.00357076 0 0)
(-0.00357312 0 0)
(-0.00357548 0 0)
(-0.00357784 0 0)
(-0.0035802 0 0)
(-0.00358256 0 0)
(-0.00358493 0 0)
(-0.00358729 0 0)
(-0.00358965 0 0)
(-0.00359201 0 0)
(-0.00359437 0 0)
(-0.00359673 0 0)
(-0.0035991 0 0)
(-0.00360146 0 0)
(-0.00360382 0 0)
(-0.00360618 0 0)
(-0.00360854 0 0)
(-0.0036109 0 0)
(-0.00361326 0 0)
(-0.00361562 0 0)
(-0.00361798 0 0)
(-0.00362034 0 0)
(-0.0036227 0 0)
(-0.00362506 0 0)
(-0.00362742 0 0)
(-0.00362978 0 0)
(-0.00363214 0 0)
(-0.00363449 0 0)
(-0.00363685 0 0)
(-0.00363921 0 0)
(-0.00364157 0 0)
(-0.00364392 0 0)
(-0.00364628 0 0)
(-0.00364864 0 0)
(-0.00365099 0 0)
(-0.00365335 0 0)
(-0.00365571 0 0)
(-0.00365806 0 0)
(-0.00366042 0 0)
(-0.00366278 0 0)
(-0.00366513 0 0)
(-0.00366749 0 0)
(-0.00366984 0 0)
(-0.0036722 0 0)
(-0.00367456 0 0)
(-0.00367691 0 0)
(-0.00367927 0 0)
(-0.00368163 0 0)
(-0.00368399 0 0)
(-0.00368634 0 0)
(-0.0036887 0 0)
(-0.00369106 0 0)
(-0.00369342 0 0)
(-0.00369578 0 0)
(-0.00369814 0 0)
(-0.0037005 0 0)
(-0.00370286 0 0)
(-0.00370522 0 0)
(-0.00370759 0 0)
(-0.00370995 0 0)
(-0.00371231 0 0)
(-0.00371468 0 0)
(-0.00371704 0 0)
(-0.00371941 0 0)
(-0.00372178 0 0)
(-0.00372414 0 0)
(-0.00372651 0 0)
(-0.00372888 0 0)
(-0.00373125 0 0)
(-0.00373362 0 0)
(-0.00373599 0 0)
(-0.00373836 0 0)
(-0.00374073 0 0)
(-0.0037431 0 0)
(-0.00374548 0 0)
(-0.00374785 0 0)
(-0.00375023 0 0)
(-0.0037526 0 0)
(-0.00375498 0 0)
(-0.00375735 0 0)
(-0.00375973 0 0)
(-0.00376211 0 0)
(-0.00376448 0 0)
(-0.00376686 0 0)
(-0.00376924 0 0)
(-0.00377162 0 0)
(-0.00377399 0 0)
(-0.00377637 0 0)
(-0.00377875 0 0)
(-0.00378113 0 0)
(-0.00378351 0 0)
(-0.00378589 0 0)
(-0.00378827 0 0)
(-0.00379065 0 0)
(-0.00379303 0 0)
(-0.00379541 0 0)
(-0.00379779 0 0)
(-0.00380017 0 0)
(-0.00380255 0 0)
(-0.00380493 0 0)
(-0.00380731 0 0)
(-0.00380969 0 0)
(-0.00381207 0 0)
(-0.00381445 0 0)
(-0.00381683 0 0)
(-0.00381921 0 0)
(-0.00382159 0 0)
(-0.00382397 0 0)
(-0.00382635 0 0)
(-0.00382873 0 0)
(-0.00383111 0 0)
(-0.00383349 0 0)
(-0.00383587 0 0)
(-0.00383825 0 0)
(-0.00384063 0 0)
(-0.00384301 0 0)
(-0.0038454 0 0)
(-0.00384778 0 0)
(-0.00385016 0 0)
(-0.00385254 0 0)
(-0.00385492 0 0)
(-0.0038573 0 0)
(-0.00385969 0 0)
(-0.00386207 0 0)
(-0.00386445 0 0)
(-0.00386683 0 0)
(-0.00386922 0 0)
(-0.0038716 0 0)
(-0.00387399 0 0)
(-0.00387637 0 0)
(-0.00387876 0 0)
(-0.00388114 0 0)
(-0.00388353 0 0)
(-0.00388592 0 0)
(-0.00388831 0 0)
(-0.00389069 0 0)
(-0.00389308 0 0)
(-0.00389547 0 0)
(-0.00389786 0 0)
(-0.00390025 0 0)
(-0.00390265 0 0)
(-0.00390504 0 0)
(-0.00390743 0 0)
(-0.00390982 0 0)
(-0.00391222 0 0)
(-0.00391461 0 0)
(-0.00391701 0 0)
(-0.00391941 0 0)
(-0.0039218 0 0)
(-0.0039242 0 0)
(-0.0039266 0 0)
(-0.00392899 0 0)
(-0.00393139 0 0)
(-0.00393379 0 0)
(-0.00393619 0 0)
(-0.00393859 0 0)
(-0.00394099 0 0)
(-0.00394339 0 0)
(-0.00394579 0 0)
(-0.00394819 0 0)
(-0.00395059 0 0)
(-0.00395299 0 0)
(-0.00395539 0 0)
(-0.00395779 0 0)
(-0.00396019 0 0)
(-0.00396259 0 0)
(-0.00396499 0 0)
(-0.00396739 0 0)
(-0.00396978 0 0)
(-0.00397218 0 0)
(-0.00397458 0 0)
(-0.00397698 0 0)
(-0.00397937 0 0)
(-0.00398177 0 0)
(-0.00398416 0 0)
(-0.00398655 0 0)
(-0.00398895 0 0)
(-0.00399134 0 0)
(-0.00399373 0 0)
(-0.00399612 0 0)
(-0.00399851 0 0)
(-0.0040009 0 0)
(-0.00400329 0 0)
(-0.00400568 0 0)
(-0.00400807 0 0)
(-0.00401045 0 0)
(-0.00401284 0 0)
(-0.00401523 0 0)
(-0.00401761 0 0)
(-0.00402 0 0)
(-0.00402239 0 0)
(-0.00402477 0 0)
(-0.00402716 0 0)
(-0.00402955 0 0)
(-0.00403193 0 0)
(-0.00403432 0 0)
(-0.00403671 0 0)
(-0.0040391 0 0)
(-0.00404149 0 0)
(-0.00404388 0 0)
(-0.00404628 0 0)
(-0.00404867 0 0)
(-0.00405107 0 0)
(-0.00405347 0 0)
(-0.00405586 0 0)
(-0.00405827 0 0)
(-0.00406067 0 0)
(-0.00406307 0 0)
(-0.00406548 0 0)
(-0.00406789 0 0)
(-0.0040703 0 0)
(-0.00407272 0 0)
(-0.00407513 0 0)
(-0.00407755 0 0)
(-0.00407997 0 0)
(-0.00408239 0 0)
(-0.00408482 0 0)
(-0.00408724 0 0)
(-0.00408967 0 0)
(-0.0040921 0 0)
(-0.00409453 0 0)
(-0.00409697 0 0)
(-0.0040994 0 0)
(-0.00410184 0 0)
(-0.00410428 0 0)
(-0.00410672 0 0)
(-0.00410916 0 0)
(-0.0041116 0 0)
(-0.00411404 0 0)
(-0.00411648 0 0)
(-0.00411892 0 0)
(-0.00412136 0 0)
(-0.0041238 0 0)
(-0.00412624 0 0)
(-0.00412868 0 0)
(-0.00413112 0 0)
(-0.00413355 0 0)
(-0.00413599 0 0)
(-0.00413842 0 0)
(-0.00414085 0 0)
(-0.00414328 0 0)
(-0.0041457 0 0)
(-0.00414813 0 0)
(-0.00415055 0 0)
(-0.00415296 0 0)
(-0.00415538 0 0)
(-0.00415779 0 0)
(-0.0041602 0 0)
(-0.00416261 0 0)
(-0.00416501 0 0)
(-0.00416741 0 0)
(-0.00416981 0 0)
(-0.00417221 0 0)
(-0.0041746 0 0)
(-0.00417699 0 0)
(-0.00417939 0 0)
(-0.00418178 0 0)
(-0.00418417 0 0)
(-0.00418656 0 0)
(-0.00418895 0 0)
(-0.00419134 0 0)
(-0.00419373 0 0)
(-0.00419612 0 0)
(-0.00419851 0 0)
(-0.00420091 0 0)
(-0.0042033 0 0)
(-0.00420571 0 0)
(-0.00420811 0 0)
(-0.00421052 0 0)
(-0.00421293 0 0)
(-0.00421534 0 0)
(-0.00421776 0 0)
(-0.00422018 0 0)
(-0.0042226 0 0)
(-0.00422503 0 0)
(-0.00422747 0 0)
(-0.00422991 0 0)
(-0.00423235 0 0)
(-0.00423479 0 0)
(-0.00423724 0 0)
(-0.00423969 0 0)
(-0.00424215 0 0)
(-0.0042446 0 0)
(-0.00424706 0 0)
(-0.00424952 0 0)
(-0.00425199 0 0)
(-0.00425445 0 0)
(-0.00425691 0 0)
(-0.00425938 0 0)
(-0.00426184 0 0)
(-0.0042643 0 0)
(-0.00426676 0 0)
(-0.00426922 0 0)
(-0.00427168 0 0)
(-0.00427413 0 0)
(-0.00427659 0 0)
(-0.00427904 0 0)
(-0.00428149 0 0)
(-0.00428393 0 0)
(-0.00428637 0 0)
(-0.00428881 0 0)
(-0.00429124 0 0)
(-0.00429367 0 0)
(-0.0042961 0 0)
(-0.00429852 0 0)
(-0.00430094 0 0)
(-0.00430336 0 0)
(-0.00430578 0 0)
(-0.00430819 0 0)
(-0.0043106 0 0)
(-0.00431301 0 0)
(-0.00431541 0 0)
(-0.00431782 0 0)
(-0.00432022 0 0)
(-0.00432262 0 0)
(-0.00432502 0 0)
(-0.00432742 0 0)
(-0.00432982 0 0)
(-0.00433222 0 0)
(-0.00433463 0 0)
(-0.00433703 0 0)
(-0.00433943 0 0)
(-0.00434183 0 0)
(-0.00434424 0 0)
(-0.00434664 0 0)
(-0.00434905 0 0)
(-0.00435145 0 0)
(-0.00435386 0 0)
(-0.00435626 0 0)
(-0.00435867 0 0)
(-0.00436107 0 0)
(-0.00436347 0 0)
(-0.00436587 0 0)
(-0.00436827 0 0)
(-0.00437066 0 0)
(-0.00437305 0 0)
(-0.00437544 0 0)
(-0.00437782 0 0)
(-0.0043802 0 0)
(-0.00438257 0 0)
(-0.00438494 0 0)
(-0.0043873 0 0)
(-0.00438965 0 0)
(-0.004392 0 0)
(-0.00439435 0 0)
(-0.00439669 0 0)
(-0.00439903 0 0)
(-0.00440137 0 0)
(-0.00440371 0 0)
(-0.00440605 0 0)
(-0.00440839 0 0)
(-0.00441074 0 0)
(-0.00441309 0 0)
(-0.00441545 0 0)
(-0.00441782 0 0)
(-0.00442021 0 0)
(-0.0044226 0 0)
(-0.00442501 0 0)
(-0.00442744 0 0)
(-0.00442988 0 0)
(-0.00443233 0 0)
(-0.0044348 0 0)
(-0.00443728 0 0)
(-0.00443978 0 0)
(-0.00444229 0 0)
(-0.0044448 0 0)
(-0.00444733 0 0)
(-0.00444985 0 0)
(-0.00445238 0 0)
(-0.00445491 0 0)
(-0.00445742 0 0)
(-0.00445993 0 0)
(-0.00446242 0 0)
(-0.0044649 0 0)
(-0.00446734 0 0)
(-0.00446977 0 0)
(-0.00447217 0 0)
(-0.00447449 0 0)
(-0.00447682 0 0)
(-0.0044791 0 0)
(-0.00448132 0 0)
(-0.00448352 0 0)
(-0.00448566 0 0)
(-0.00448777 0 0)
(-0.00448985 0 0)
(-0.00449191 0 0)
(-0.00449396 0 0)
(-0.00449599 0 0)
(-0.00449802 0 0)
(-0.00450005 0 0)
(-0.00450206 0 0)
(-0.00450407 0 0)
(-0.00450603 0 0)
(-0.00450796 0 0)
(-0.0045098 0 0)
(-0.00451156 0 0)
(-0.00451319 0 0)
(-0.00451467 0 0)
(-0.004516 0 0)
(-0.00451713 0 0)
(-0.0045181 0 0)
(-0.00451887 0 0)
(-0.00451946 0 0)
(-0.00451984 0 0)
(-0.00452001 0 0)
(-0.00451993 0 0)
(-0.00451958 0 0)
(-0.00451887 0 0)
(-0.0045177 0 0)
(-0.00451593 0 0)
(-0.00451358 0 0)
(-0.00451054 0 0)
(-0.00450687 0 0)
(-0.00449748 0 0)
(-0.00448419 0 0)
(-0.00444555 0 0)
(-0.00439628 0 0)
(-0.00435781 0 0)
(-0.00407009 0 0)
(-0.00425085 0 0)
(0.00330571 0 0)
(0.0379919 0 0)
(0.0830155 0 0)
(0.106941 0 0)
(0.116098 0 0)
(0.119574 0 0)
(0.120787 0 0)
(0.121168 0 0)
(0.121292 0 0)
(0.12133 0 0)
(0.121352 0 0)
(0.12136 0 0)
(0.121307 0 0)
(0.121363 0 0)
(0.121405 0 0)
(0.121339 0 0)
(0.121281 0 0)
(0.121365 0 0)
(0.121375 0 0)
(0.121308 0 0)
(0.12132 0 0)
(0.121427 0 0)
(0.121221 0 0)
(0.121341 0 0)
(0.121472 0 0)
(0.12112 0 0)
(0.121393 0 0)
(0.121431 0 0)
(0.121176 0 0)
(0.121432 0 0)
(0.121198 0 0)
(0.121354 0 0)
(0.121391 0 0)
(0.121252 0 0)
(0.121231 0 0)
(0.121367 0 0)
(0.121374 0 0)
(0.121197 0 0)
(0.121352 0 0)
(0.121263 0 0)
(0.121332 0 0)
(0.121265 0 0)
(0.12128 0 0)
(0.121358 0 0)
(0.121213 0 0)
(0.121287 0 0)
(0.121375 0 0)
(0.121159 0 0)
(0.1213 0 0)
(0.121395 0 0)
(0.121127 0 0)
(0.121325 0 0)
(0.121335 0 0)
(0.121181 0 0)
(0.121334 0 0)
(0.121209 0 0)
(0.121288 0 0)
(0.1213 0 0)
(0.121253 0 0)
(0.121169 0 0)
(0.121321 0 0)
(0.121327 0 0)
(0.121152 0 0)
(0.121308 0 0)
(0.121212 0 0)
(0.121328 0 0)
(0.121139 0 0)
(0.121258 0 0)
(0.121417 0 0)
(0.121017 0 0)
(0.121303 0 0)
(0.121405 0 0)
(0.120997 0 0)
(0.121326 0 0)
(0.121334 0 0)
(0.121119 0 0)
(0.121278 0 0)
(0.121206 0 0)
(0.1213 0 0)
(0.121115 0 0)
(0.121252 0 0)
(0.121372 0 0)
(0.121029 0 0)
(0.121293 0 0)
(0.121289 0 0)
(0.121118 0 0)
(0.121319 0 0)
(0.121099 0 0)
(0.121254 0 0)
(0.121322 0 0)
(0.121074 0 0)
(0.121324 0 0)
(0.121096 0 0)
(0.121248 0 0)
(0.121313 0 0)
(0.121088 0 0)
(0.121188 0 0)
(0.121268 0 0)
(0.121258 0 0)
(0.121088 0 0)
(0.121279 0 0)
(0.121137 0 0)
(0.121221 0 0)
(0.121267 0 0)
(0.121102 0 0)
(0.12129 0 0)
(0.121075 0 0)
(0.121235 0 0)
(0.121297 0 0)
(0.121059 0 0)
(0.121277 0 0)
(0.121132 0 0)
(0.121182 0 0)
(0.121306 0 0)
(0.121041 0 0)
(0.121212 0 0)
(0.121335 0 0)
(0.120985 0 0)
(0.121224 0 0)
(0.12136 0 0)
(0.120949 0 0)
(0.121268 0 0)
(0.121256 0 0)
(0.121123 0 0)
(0.121104 0 0)
(0.121241 0 0)
(0.121244 0 0)
(0.121085 0 0)
(0.121209 0 0)
(0.121142 0 0)
(0.121271 0 0)
(0.121044 0 0)
(0.12119 0 0)
(0.121344 0 0)
(0.12094 0 0)
(0.121244 0 0)
(0.12127 0 0)
(0.121069 0 0)
(0.121173 0 0)
(0.121249 0 0)
(0.121045 0 0)
(0.121191 0 0)
(0.121302 0 0)
(0.120997 0 0)
(0.121221 0 0)
(0.121227 0 0)
(0.121096 0 0)
(0.121164 0 0)
(0.121212 0 0)
(0.121117 0 0)
(0.121153 0 0)
(0.121278 0 0)
(0.120991 0 0)
(0.121214 0 0)
(0.121273 0 0)
(0.121029 0 0)
(0.121255 0 0)
(0.121044 0 0)
(0.121203 0 0)
(0.121257 0 0)
(0.121054 0 0)
(0.121176 0 0)
(0.121173 0 0)
(0.121161 0 0)
(0.121129 0 0)
(0.121246 0 0)
(0.121025 0 0)
(0.121187 0 0)
(0.12128 0 0)
(0.12101 0 0)
(0.121254 0 0)
(0.121067 0 0)
(0.121195 0 0)
(0.121225 0 0)
(0.121064 0 0)
(0.121184 0 0)
(0.121161 0 0)
(0.121159 0 0)
(0.121188 0 0)
(0.121049 0 0)
(0.121205 0 0)
(0.121261 0 0)
(0.121065 0 0)
)
;

boundaryField
{
    fixedWall
    {
        type            fixedValue;
        value           uniform (0 0 0);
    }
    outlet
    {
        type            pressureInletOutletVelocity;
        value           uniform (0.121065 0 0);
    }
    defaultFaces
    {
        type            empty;
    }
}


// ************************************************************************* //
