/*--------------------------------*- C++ -*----------------------------------*\
| =========                 |                                                 |
| \\      /  F ield         | OpenFOAM: The Open Source CFD Toolbox           |
|  \\    /   O peration     | Version:  2406                                  |
|   \\  /    A nd           | Website:  www.openfoam.com                      |
|    \\/     M anipulation  |                                                 |
\*---------------------------------------------------------------------------*/
FoamFile
{
    version     2.0;
    format      ascii;
    arch        "LSB;label=32;scalar=64";
    class       volScalarField;
    location    "11.9";
    object      T;
}
// * * * * * * * * * * * * * * * * * * * * * * * * * * * * * * * * * * * * * //

dimensions      [0 0 0 1 0 0 0];

internalField   nonuniform List<scalar> 
1000
(
304.752
326.538
346.81
365.797
383.673
400.575
416.614
431.88
446.447
460.379
473.731
486.548
498.871
510.735
522.172
533.209
543.87
554.178
564.153
573.812
583.171
592.246
601.05
609.596
617.894
625.956
633.791
641.409
648.817
656.025
663.038
669.864
676.51
682.981
689.283
695.422
701.403
707.231
712.91
718.444
723.838
729.097
734.222
739.219
744.091
748.841
753.472
757.987
762.39
766.683
770.869
774.95
778.929
782.809
786.592
790.28
793.876
797.381
800.798
804.129
807.376
810.541
813.625
816.631
819.56
822.415
825.196
827.905
830.545
833.116
835.62
838.059
840.434
842.747
844.998
847.19
849.324
851.401
853.422
855.389
857.302
859.164
860.975
862.736
864.449
866.115
867.734
869.308
870.838
872.325
873.77
875.174
876.538
877.863
879.15
880.399
881.612
882.79
883.933
885.042
886.118
887.162
888.175
889.157
890.11
891.033
891.929
892.796
893.637
894.452
895.242
896.006
896.747
897.464
898.158
898.83
899.48
900.109
900.718
901.307
901.876
902.427
902.959
903.474
903.971
904.451
904.916
905.364
905.797
906.215
906.619
907.008
907.384
907.747
908.097
908.434
908.76
909.073
909.376
909.667
909.948
910.218
910.479
910.73
910.971
911.204
911.428
911.643
911.85
912.049
912.241
912.425
912.602
912.772
912.936
913.093
913.243
913.388
913.527
913.661
913.789
913.912
914.03
914.143
914.251
914.355
914.455
914.55
914.641
914.729
914.813
914.893
914.97
915.043
915.113
915.18
915.245
915.306
915.365
915.421
915.475
915.526
915.575
915.622
915.667
915.709
915.75
915.789
915.826
915.861
915.894
915.926
915.957
915.986
916.013
916.04
916.065
916.088
916.111
916.133
916.153
916.172
916.191
916.208
916.225
916.241
916.256
916.27
916.283
916.296
916.308
916.32
916.33
916.341
916.35
916.359
916.368
916.376
916.384
916.391
916.398
916.405
916.411
916.416
916.422
916.427
916.432
916.436
916.44
916.444
916.448
916.452
916.455
916.458
916.461
916.463
916.466
916.468
916.47
916.472
916.474
916.476
916.478
916.479
916.481
916.482
916.483
916.484
916.485
916.486
916.487
916.488
916.488
916.489
916.49
916.49
916.491
916.491
916.491
916.492
916.492
916.492
916.493
916.493
916.493
916.493
916.493
916.493
916.494
916.494
916.494
916.494
916.494
916.494
916.494
916.494
916.494
916.494
916.494
916.494
916.494
916.494
916.494
916.494
916.494
916.494
916.494
916.494
916.494
916.494
916.494
916.493
916.493
916.493
916.493
916.493
916.493
916.493
916.493
916.493
916.493
916.494
916.494
916.494
916.494
916.494
916.494
916.494
916.494
916.494
916.494
916.494
916.494
916.494
916.494
916.494
916.495
916.495
916.495
916.495
916.495
916.495
916.495
916.495
916.496
916.496
916.496
916.496
916.496
916.496
916.497
916.497
916.497
916.497
916.497
916.497
916.498
916.498
916.498
916.498
916.498
916.499
916.499
916.499
916.499
916.499
916.5
916.5
916.5
916.5
916.5
916.501
916.501
916.501
916.501
916.501
916.502
916.502
916.502
916.502
916.503
916.503
916.503
916.503
916.503
916.504
916.504
916.504
916.504
916.504
916.505
916.505
916.505
916.505
916.505
916.506
916.506
916.506
916.506
916.506
916.506
916.507
916.507
916.507
916.507
916.507
916.507
916.508
916.508
916.508
916.508
916.508
916.508
916.509
916.509
916.509
916.509
916.509
916.509
916.509
916.509
916.51
916.51
916.51
916.51
916.51
916.51
916.51
916.51
916.511
916.511
916.511
916.511
916.511
916.511
916.511
916.511
916.511
916.511
916.511
916.512
916.512
916.512
916.512
916.512
916.512
916.512
916.512
916.512
916.512
916.512
916.512
916.512
916.512
916.513
916.513
916.513
916.513
916.513
916.513
916.513
916.513
916.513
916.513
916.513
916.513
916.513
916.513
916.513
916.513
916.513
916.513
916.514
916.514
916.514
916.514
916.514
916.514
916.514
916.514
916.514
916.514
916.514
916.514
916.514
916.514
916.514
916.514
916.514
916.514
916.514
916.514
916.514
916.514
916.514
916.514
916.514
916.514
916.514
916.515
916.515
916.515
916.515
916.515
916.515
916.515
916.515
916.515
916.515
916.515
916.515
916.515
916.515
916.515
916.515
916.515
916.515
916.515
916.515
916.515
916.515
916.515
916.515
916.515
916.515
916.515
916.515
916.515
916.515
916.515
916.515
916.515
916.515
916.515
916.515
916.515
916.515
916.515
916.515
916.515
916.515
916.515
916.515
916.515
916.515
916.516
916.516
916.516
916.516
916.516
916.516
916.516
916.516
916.516
916.516
916.516
916.516
916.516
916.516
916.516
916.516
916.516
916.516
916.516
916.516
916.516
916.516
916.516
916.516
916.516
916.516
916.516
916.516
916.516
916.516
916.516
916.516
916.516
916.516
916.516
916.516
916.516
916.516
916.517
916.517
916.517
916.517
916.517
916.517
916.517
916.517
916.517
916.517
916.517
916.517
916.517
916.517
916.517
916.517
916.517
916.517
916.517
916.517
916.517
916.517
916.517
916.517
916.517
916.517
916.517
916.517
916.518
916.518
916.518
916.518
916.518
916.518
916.518
916.518
916.518
916.518
916.518
916.518
916.518
916.518
916.518
916.518
916.518
916.518
916.518
916.518
916.518
916.518
916.518
916.518
916.518
916.518
916.518
916.518
916.518
916.518
916.518
916.518
916.518
916.518
916.518
916.518
916.518
916.518
916.518
916.518
916.518
916.518
916.518
916.518
916.518
916.518
916.518
916.518
916.518
916.518
916.518
916.518
916.518
916.518
916.518
916.518
916.518
916.518
916.518
916.518
916.518
916.518
916.518
916.518
916.518
916.518
916.518
916.518
916.518
916.518
916.518
916.518
916.518
916.518
916.518
916.518
916.518
916.518
916.518
916.518
916.518
916.518
916.518
916.518
916.518
916.518
916.518
916.518
916.518
916.518
916.518
916.518
916.518
916.518
916.518
916.518
916.518
916.518
916.518
916.518
916.518
916.518
916.518
916.518
916.518
916.518
916.518
916.518
916.518
916.519
916.519
916.519
916.519
916.519
916.519
916.519
916.519
916.519
916.519
916.519
916.519
916.519
916.519
916.519
916.519
916.519
916.519
916.519
916.52
916.52
916.52
916.52
916.52
916.52
916.52
916.52
916.52
916.52
916.52
916.52
916.52
916.52
916.52
916.52
916.52
916.52
916.52
916.52
916.52
916.52
916.52
916.52
916.52
916.52
916.52
916.52
916.519
916.519
916.519
916.519
916.519
916.519
916.519
916.519
916.518
916.518
916.518
916.518
916.518
916.517
916.517
916.517
916.516
916.516
916.516
916.515
916.515
916.514
916.514
916.513
916.512
916.512
916.511
916.51
916.509
916.509
916.508
916.507
916.505
916.504
916.503
916.502
916.5
916.499
916.497
916.495
916.493
916.491
916.489
916.486
916.483
916.481
916.478
916.474
916.471
916.467
916.463
916.459
916.454
916.449
916.443
916.438
916.432
916.425
916.418
916.41
916.402
916.393
916.384
916.374
916.363
916.352
916.339
916.326
916.312
916.297
916.281
916.264
916.246
916.227
916.206
916.184
916.161
916.136
916.109
916.081
916.051
916.019
915.985
915.948
915.91
915.869
915.826
915.78
915.731
915.679
915.624
915.566
915.505
915.44
915.371
915.298
915.221
915.139
915.053
914.962
914.866
914.765
914.658
914.546
914.427
914.302
914.17
914.032
913.886
913.733
913.572
913.402
913.224
913.037
912.841
912.636
912.42
912.193
911.956
911.708
911.448
911.176
910.891
910.593
910.282
909.957
909.617
909.262
908.892
908.506
908.103
907.683
907.245
906.789
906.315
905.821
905.306
904.771
904.215
903.637
903.037
902.413
901.766
901.094
900.396
899.673
898.923
898.146
897.341
896.507
895.643
894.749
893.824
892.867
891.878
890.854
889.797
888.704
887.575
886.41
885.206
883.964
882.682
881.359
879.995
878.588
877.137
875.642
874.101
872.513
870.877
869.192
867.456
865.669
863.829
861.935
859.985
857.979
855.914
853.789
851.602
849.352
847.038
844.657
842.208
839.688
837.096
834.43
831.687
828.866
825.963
822.977
819.905
816.745
813.493
810.146
806.702
803.157
799.508
795.752
791.884
787.901
783.8
779.575
775.222
770.737
766.114
761.35
756.438
751.372
746.148
740.76
735.199
729.462
723.539
717.424
711.146
704.691
697.959
691.006
683.822
676.399
668.729
660.802
652.609
644.141
635.388
626.342
616.993
607.333
597.353
587.045
576.402
565.418
554.088
542.406
530.372
517.984
505.244
492.158
478.732
464.978
450.911
436.551
421.921
407.054
391.985
376.757
361.423
346.042
330.682
315.425
300.361
)
;

boundaryField
{
    fixedWall
    {
        type            fixedValue;
        value           uniform 293;
    }
    outlet
    {
        type            inletOutlet;
        inletValue      uniform 293;
        value           uniform 293;
    }
    defaultFaces
    {
        type            empty;
    }
}


// ************************************************************************* //
