/*--------------------------------*- C++ -*----------------------------------*\
| =========                 |                                                 |
| \\      /  F ield         | OpenFOAM: The Open Source CFD Toolbox           |
|  \\    /   O peration     | Version:  2406                                  |
|   \\  /    A nd           | Website:  www.openfoam.com                      |
|    \\/     M anipulation  |                                                 |
\*---------------------------------------------------------------------------*/
FoamFile
{
    version     2.0;
    format      ascii;
    arch        "LSB;label=32;scalar=64";
    class       volVectorField;
    location    "11.9";
    object      U;
}
// * * * * * * * * * * * * * * * * * * * * * * * * * * * * * * * * * * * * * //

dimensions      [0 1 -1 0 0 0 0];

internalField   nonuniform List<vector> 
1000
(
(-7.50299e-07 0 0)
(-3.59084e-06 0 0)
(-9.2425e-06 0 0)
(-1.70691e-05 0 0)
(-2.6587e-05 0 0)
(-3.75023e-05 0 0)
(-4.96093e-05 0 0)
(-6.27385e-05 0 0)
(-7.67468e-05 0 0)
(-9.15138e-05 0 0)
(-0.000106938 0 0)
(-0.000122932 0 0)
(-0.000139421 0 0)
(-0.00015634 0 0)
(-0.000173634 0 0)
(-0.000191249 0 0)
(-0.000209144 0 0)
(-0.000227278 0 0)
(-0.000245615 0 0)
(-0.000264124 0 0)
(-0.000282775 0 0)
(-0.000301543 0 0)
(-0.000320403 0 0)
(-0.000339335 0 0)
(-0.000358316 0 0)
(-0.00037733 0 0)
(-0.000396359 0 0)
(-0.000415387 0 0)
(-0.000434401 0 0)
(-0.000453386 0 0)
(-0.000472329 0 0)
(-0.00049122 0 0)
(-0.000510047 0 0)
(-0.0005288 0 0)
(-0.000547469 0 0)
(-0.000566046 0 0)
(-0.000584523 0 0)
(-0.000602891 0 0)
(-0.000621142 0 0)
(-0.000639272 0 0)
(-0.000657273 0 0)
(-0.000675138 0 0)
(-0.000692862 0 0)
(-0.00071044 0 0)
(-0.000727867 0 0)
(-0.00074514 0 0)
(-0.000762252 0 0)
(-0.0007792 0 0)
(-0.000795981 0 0)
(-0.00081259 0 0)
(-0.000829025 0 0)
(-0.000845283 0 0)
(-0.000861361 0 0)
(-0.000877256 0 0)
(-0.000892966 0 0)
(-0.000908489 0 0)
(-0.000923823 0 0)
(-0.000938966 0 0)
(-0.000953917 0 0)
(-0.000968673 0 0)
(-0.000983235 0 0)
(-0.0009976 0 0)
(-0.00101177 0 0)
(-0.00102574 0 0)
(-0.00103951 0 0)
(-0.00105308 0 0)
(-0.00106646 0 0)
(-0.00107963 0 0)
(-0.00109261 0 0)
(-0.00110538 0 0)
(-0.00111795 0 0)
(-0.00113033 0 0)
(-0.0011425 0 0)
(-0.00115448 0 0)
(-0.00116626 0 0)
(-0.00117784 0 0)
(-0.00118922 0 0)
(-0.00120041 0 0)
(-0.00121141 0 0)
(-0.0012222 0 0)
(-0.00123281 0 0)
(-0.00124322 0 0)
(-0.00125345 0 0)
(-0.00126348 0 0)
(-0.00127332 0 0)
(-0.00128298 0 0)
(-0.00129245 0 0)
(-0.00130174 0 0)
(-0.00131084 0 0)
(-0.00131977 0 0)
(-0.00132851 0 0)
(-0.00133708 0 0)
(-0.00134547 0 0)
(-0.00135369 0 0)
(-0.00136174 0 0)
(-0.00136961 0 0)
(-0.00137732 0 0)
(-0.00138486 0 0)
(-0.00139224 0 0)
(-0.00139945 0 0)
(-0.0014065 0 0)
(-0.0014134 0 0)
(-0.00142014 0 0)
(-0.00142672 0 0)
(-0.00143316 0 0)
(-0.00143944 0 0)
(-0.00144558 0 0)
(-0.00145156 0 0)
(-0.00145741 0 0)
(-0.00146312 0 0)
(-0.00146868 0 0)
(-0.00147411 0 0)
(-0.0014794 0 0)
(-0.00148457 0 0)
(-0.0014896 0 0)
(-0.0014945 0 0)
(-0.00149928 0 0)
(-0.00150393 0 0)
(-0.00150847 0 0)
(-0.00151288 0 0)
(-0.00151718 0 0)
(-0.00152136 0 0)
(-0.00152543 0 0)
(-0.00152939 0 0)
(-0.00153324 0 0)
(-0.00153698 0 0)
(-0.00154062 0 0)
(-0.00154416 0 0)
(-0.00154759 0 0)
(-0.00155093 0 0)
(-0.00155418 0 0)
(-0.00155733 0 0)
(-0.00156039 0 0)
(-0.00156336 0 0)
(-0.00156624 0 0)
(-0.00156903 0 0)
(-0.00157175 0 0)
(-0.00157438 0 0)
(-0.00157693 0 0)
(-0.0015794 0 0)
(-0.0015818 0 0)
(-0.00158412 0 0)
(-0.00158637 0 0)
(-0.00158854 0 0)
(-0.00159065 0 0)
(-0.0015927 0 0)
(-0.00159467 0 0)
(-0.00159658 0 0)
(-0.00159844 0 0)
(-0.00160022 0 0)
(-0.00160196 0 0)
(-0.00160363 0 0)
(-0.00160525 0 0)
(-0.00160681 0 0)
(-0.00160832 0 0)
(-0.00160978 0 0)
(-0.00161118 0 0)
(-0.00161254 0 0)
(-0.00161386 0 0)
(-0.00161512 0 0)
(-0.00161635 0 0)
(-0.00161753 0 0)
(-0.00161866 0 0)
(-0.00161976 0 0)
(-0.00162082 0 0)
(-0.00162183 0 0)
(-0.00162281 0 0)
(-0.00162376 0 0)
(-0.00162467 0 0)
(-0.00162555 0 0)
(-0.00162639 0 0)
(-0.0016272 0 0)
(-0.00162798 0 0)
(-0.00162872 0 0)
(-0.00162944 0 0)
(-0.00163014 0 0)
(-0.00163081 0 0)
(-0.00163145 0 0)
(-0.00163207 0 0)
(-0.00163266 0 0)
(-0.00163323 0 0)
(-0.00163378 0 0)
(-0.00163431 0 0)
(-0.00163481 0 0)
(-0.00163529 0 0)
(-0.00163576 0 0)
(-0.0016362 0 0)
(-0.00163663 0 0)
(-0.00163704 0 0)
(-0.00163743 0 0)
(-0.00163781 0 0)
(-0.00163817 0 0)
(-0.00163851 0 0)
(-0.00163885 0 0)
(-0.00163916 0 0)
(-0.00163947 0 0)
(-0.00163976 0 0)
(-0.00164003 0 0)
(-0.0016403 0 0)
(-0.00164055 0 0)
(-0.00164079 0 0)
(-0.00164102 0 0)
(-0.00164124 0 0)
(-0.00164146 0 0)
(-0.00164166 0 0)
(-0.00164185 0 0)
(-0.00164203 0 0)
(-0.00164221 0 0)
(-0.00164238 0 0)
(-0.00164254 0 0)
(-0.00164269 0 0)
(-0.00164284 0 0)
(-0.00164297 0 0)
(-0.00164311 0 0)
(-0.00164323 0 0)
(-0.00164335 0 0)
(-0.00164347 0 0)
(-0.00164357 0 0)
(-0.00164368 0 0)
(-0.00164378 0 0)
(-0.00164387 0 0)
(-0.00164396 0 0)
(-0.00164404 0 0)
(-0.00164412 0 0)
(-0.0016442 0 0)
(-0.00164427 0 0)
(-0.00164434 0 0)
(-0.0016444 0 0)
(-0.00164447 0 0)
(-0.00164452 0 0)
(-0.00164458 0 0)
(-0.00164463 0 0)
(-0.00164468 0 0)
(-0.00164473 0 0)
(-0.00164477 0 0)
(-0.00164482 0 0)
(-0.00164486 0 0)
(-0.00164489 0 0)
(-0.00164493 0 0)
(-0.00164496 0 0)
(-0.00164499 0 0)
(-0.00164502 0 0)
(-0.00164505 0 0)
(-0.00164508 0 0)
(-0.0016451 0 0)
(-0.00164513 0 0)
(-0.00164515 0 0)
(-0.00164517 0 0)
(-0.00164519 0 0)
(-0.00164521 0 0)
(-0.00164523 0 0)
(-0.00164524 0 0)
(-0.00164526 0 0)
(-0.00164527 0 0)
(-0.00164528 0 0)
(-0.0016453 0 0)
(-0.00164531 0 0)
(-0.00164532 0 0)
(-0.00164533 0 0)
(-0.00164534 0 0)
(-0.00164535 0 0)
(-0.00164535 0 0)
(-0.00164536 0 0)
(-0.00164537 0 0)
(-0.00164537 0 0)
(-0.00164538 0 0)
(-0.00164538 0 0)
(-0.00164539 0 0)
(-0.00164539 0 0)
(-0.0016454 0 0)
(-0.0016454 0 0)
(-0.0016454 0 0)
(-0.00164541 0 0)
(-0.00164541 0 0)
(-0.00164541 0 0)
(-0.00164541 0 0)
(-0.00164541 0 0)
(-0.00164541 0 0)
(-0.00164542 0 0)
(-0.00164542 0 0)
(-0.00164542 0 0)
(-0.00164542 0 0)
(-0.00164542 0 0)
(-0.00164542 0 0)
(-0.00164542 0 0)
(-0.00164542 0 0)
(-0.00164542 0 0)
(-0.00164542 0 0)
(-0.00164542 0 0)
(-0.00164542 0 0)
(-0.00164541 0 0)
(-0.00164542 0 0)
(-0.00164541 0 0)
(-0.00164541 0 0)
(-0.00164541 0 0)
(-0.00164541 0 0)
(-0.00164541 0 0)
(-0.00164541 0 0)
(-0.00164541 0 0)
(-0.00164541 0 0)
(-0.0016454 0 0)
(-0.0016454 0 0)
(-0.0016454 0 0)
(-0.0016454 0 0)
(-0.0016454 0 0)
(-0.0016454 0 0)
(-0.00164539 0 0)
(-0.0016454 0 0)
(-0.00164539 0 0)
(-0.00164539 0 0)
(-0.00164539 0 0)
(-0.00164539 0 0)
(-0.00164539 0 0)
(-0.00164539 0 0)
(-0.00164538 0 0)
(-0.00164539 0 0)
(-0.00164538 0 0)
(-0.00164538 0 0)
(-0.00164538 0 0)
(-0.00164538 0 0)
(-0.00164538 0 0)
(-0.00164537 0 0)
(-0.00164538 0 0)
(-0.00164537 0 0)
(-0.00164537 0 0)
(-0.00164537 0 0)
(-0.00164537 0 0)
(-0.00164537 0 0)
(-0.00164537 0 0)
(-0.00164536 0 0)
(-0.00164537 0 0)
(-0.00164537 0 0)
(-0.00164536 0 0)
(-0.00164536 0 0)
(-0.00164536 0 0)
(-0.00164536 0 0)
(-0.00164536 0 0)
(-0.00164536 0 0)
(-0.00164536 0 0)
(-0.00164536 0 0)
(-0.00164536 0 0)
(-0.00164536 0 0)
(-0.00164536 0 0)
(-0.00164536 0 0)
(-0.00164536 0 0)
(-0.00164535 0 0)
(-0.00164536 0 0)
(-0.00164535 0 0)
(-0.00164536 0 0)
(-0.00164535 0 0)
(-0.00164536 0 0)
(-0.00164536 0 0)
(-0.00164535 0 0)
(-0.00164536 0 0)
(-0.00164535 0 0)
(-0.00164536 0 0)
(-0.00164535 0 0)
(-0.00164536 0 0)
(-0.00164535 0 0)
(-0.00164535 0 0)
(-0.00164535 0 0)
(-0.00164535 0 0)
(-0.00164536 0 0)
(-0.00164535 0 0)
(-0.00164536 0 0)
(-0.00164535 0 0)
(-0.00164536 0 0)
(-0.00164535 0 0)
(-0.00164536 0 0)
(-0.00164536 0 0)
(-0.00164536 0 0)
(-0.00164536 0 0)
(-0.00164536 0 0)
(-0.00164536 0 0)
(-0.00164536 0 0)
(-0.00164536 0 0)
(-0.00164536 0 0)
(-0.00164536 0 0)
(-0.00164536 0 0)
(-0.00164536 0 0)
(-0.00164536 0 0)
(-0.00164536 0 0)
(-0.00164536 0 0)
(-0.00164536 0 0)
(-0.00164536 0 0)
(-0.00164536 0 0)
(-0.00164536 0 0)
(-0.00164536 0 0)
(-0.00164536 0 0)
(-0.00164536 0 0)
(-0.00164536 0 0)
(-0.00164536 0 0)
(-0.00164536 0 0)
(-0.00164536 0 0)
(-0.00164537 0 0)
(-0.00164537 0 0)
(-0.00164537 0 0)
(-0.00164537 0 0)
(-0.00164537 0 0)
(-0.00164537 0 0)
(-0.00164537 0 0)
(-0.00164537 0 0)
(-0.00164537 0 0)
(-0.00164537 0 0)
(-0.00164537 0 0)
(-0.00164537 0 0)
(-0.00164537 0 0)
(-0.00164537 0 0)
(-0.00164537 0 0)
(-0.00164537 0 0)
(-0.00164537 0 0)
(-0.00164537 0 0)
(-0.00164537 0 0)
(-0.00164537 0 0)
(-0.00164537 0 0)
(-0.00164537 0 0)
(-0.00164537 0 0)
(-0.00164538 0 0)
(-0.00164537 0 0)
(-0.00164537 0 0)
(-0.00164538 0 0)
(-0.00164537 0 0)
(-0.00164538 0 0)
(-0.00164538 0 0)
(-0.00164538 0 0)
(-0.00164538 0 0)
(-0.00164538 0 0)
(-0.00164538 0 0)
(-0.00164538 0 0)
(-0.00164538 0 0)
(-0.00164538 0 0)
(-0.00164538 0 0)
(-0.00164538 0 0)
(-0.00164538 0 0)
(-0.00164538 0 0)
(-0.00164538 0 0)
(-0.00164538 0 0)
(-0.00164538 0 0)
(-0.00164538 0 0)
(-0.00164538 0 0)
(-0.00164538 0 0)
(-0.00164538 0 0)
(-0.00164538 0 0)
(-0.00164538 0 0)
(-0.00164538 0 0)
(-0.00164538 0 0)
(-0.00164538 0 0)
(-0.00164538 0 0)
(-0.00164538 0 0)
(-0.00164538 0 0)
(-0.00164538 0 0)
(-0.00164538 0 0)
(-0.00164538 0 0)
(-0.00164538 0 0)
(-0.00164538 0 0)
(-0.00164538 0 0)
(-0.00164538 0 0)
(-0.00164538 0 0)
(-0.00164538 0 0)
(-0.00164538 0 0)
(-0.00164538 0 0)
(-0.00164538 0 0)
(-0.00164538 0 0)
(-0.00164538 0 0)
(-0.00164538 0 0)
(-0.00164538 0 0)
(-0.00164538 0 0)
(-0.00164538 0 0)
(-0.00164538 0 0)
(-0.00164538 0 0)
(-0.00164538 0 0)
(-0.00164538 0 0)
(-0.00164538 0 0)
(-0.00164538 0 0)
(-0.00164538 0 0)
(-0.00164538 0 0)
(-0.00164538 0 0)
(-0.00164538 0 0)
(-0.00164538 0 0)
(-0.00164538 0 0)
(-0.00164538 0 0)
(-0.00164538 0 0)
(-0.00164538 0 0)
(-0.00164538 0 0)
(-0.00164538 0 0)
(-0.00164538 0 0)
(-0.00164538 0 0)
(-0.00164538 0 0)
(-0.00164538 0 0)
(-0.00164538 0 0)
(-0.00164538 0 0)
(-0.00164538 0 0)
(-0.00164538 0 0)
(-0.00164538 0 0)
(-0.00164538 0 0)
(-0.00164538 0 0)
(-0.00164538 0 0)
(-0.00164538 0 0)
(-0.00164538 0 0)
(-0.00164538 0 0)
(-0.00164538 0 0)
(-0.00164538 0 0)
(-0.00164538 0 0)
(-0.00164538 0 0)
(-0.00164538 0 0)
(-0.00164538 0 0)
(-0.00164538 0 0)
(-0.00164538 0 0)
(-0.00164538 0 0)
(-0.00164538 0 0)
(-0.00164538 0 0)
(-0.00164538 0 0)
(-0.00164538 0 0)
(-0.00164538 0 0)
(-0.00164538 0 0)
(-0.00164538 0 0)
(-0.00164538 0 0)
(-0.00164538 0 0)
(-0.00164538 0 0)
(-0.00164538 0 0)
(-0.00164538 0 0)
(-0.00164538 0 0)
(-0.00164538 0 0)
(-0.00164538 0 0)
(-0.00164538 0 0)
(-0.00164538 0 0)
(-0.00164538 0 0)
(-0.00164537 0 0)
(-0.00164538 0 0)
(-0.00164537 0 0)
(-0.00164538 0 0)
(-0.00164537 0 0)
(-0.00164538 0 0)
(-0.00164538 0 0)
(-0.00164537 0 0)
(-0.00164538 0 0)
(-0.00164537 0 0)
(-0.00164538 0 0)
(-0.00164537 0 0)
(-0.00164537 0 0)
(-0.00164537 0 0)
(-0.00164537 0 0)
(-0.00164537 0 0)
(-0.00164537 0 0)
(-0.00164537 0 0)
(-0.00164537 0 0)
(-0.00164537 0 0)
(-0.00164537 0 0)
(-0.00164537 0 0)
(-0.00164537 0 0)
(-0.00164537 0 0)
(-0.00164537 0 0)
(-0.00164537 0 0)
(-0.00164537 0 0)
(-0.00164537 0 0)
(-0.00164537 0 0)
(-0.00164537 0 0)
(-0.00164537 0 0)
(-0.00164537 0 0)
(-0.00164537 0 0)
(-0.00164537 0 0)
(-0.00164537 0 0)
(-0.00164537 0 0)
(-0.00164537 0 0)
(-0.00164537 0 0)
(-0.00164537 0 0)
(-0.00164537 0 0)
(-0.00164537 0 0)
(-0.00164537 0 0)
(-0.00164537 0 0)
(-0.00164537 0 0)
(-0.00164537 0 0)
(-0.00164537 0 0)
(-0.00164537 0 0)
(-0.00164537 0 0)
(-0.00164537 0 0)
(-0.00164537 0 0)
(-0.00164537 0 0)
(-0.00164537 0 0)
(-0.00164537 0 0)
(-0.00164537 0 0)
(-0.00164537 0 0)
(-0.00164537 0 0)
(-0.00164536 0 0)
(-0.00164537 0 0)
(-0.00164536 0 0)
(-0.00164537 0 0)
(-0.00164537 0 0)
(-0.00164537 0 0)
(-0.00164537 0 0)
(-0.00164537 0 0)
(-0.00164537 0 0)
(-0.00164537 0 0)
(-0.00164537 0 0)
(-0.00164537 0 0)
(-0.00164537 0 0)
(-0.00164537 0 0)
(-0.00164537 0 0)
(-0.00164537 0 0)
(-0.00164537 0 0)
(-0.00164537 0 0)
(-0.00164537 0 0)
(-0.00164537 0 0)
(-0.00164537 0 0)
(-0.00164537 0 0)
(-0.00164537 0 0)
(-0.00164537 0 0)
(-0.00164537 0 0)
(-0.00164537 0 0)
(-0.00164537 0 0)
(-0.00164537 0 0)
(-0.00164537 0 0)
(-0.00164537 0 0)
(-0.00164537 0 0)
(-0.00164537 0 0)
(-0.00164537 0 0)
(-0.00164537 0 0)
(-0.00164537 0 0)
(-0.00164537 0 0)
(-0.00164537 0 0)
(-0.00164537 0 0)
(-0.00164537 0 0)
(-0.00164537 0 0)
(-0.00164537 0 0)
(-0.00164537 0 0)
(-0.00164537 0 0)
(-0.00164537 0 0)
(-0.00164537 0 0)
(-0.00164537 0 0)
(-0.00164537 0 0)
(-0.00164537 0 0)
(-0.00164537 0 0)
(-0.00164537 0 0)
(-0.00164537 0 0)
(-0.00164537 0 0)
(-0.00164537 0 0)
(-0.00164537 0 0)
(-0.00164537 0 0)
(-0.00164537 0 0)
(-0.00164537 0 0)
(-0.00164537 0 0)
(-0.00164537 0 0)
(-0.00164537 0 0)
(-0.00164537 0 0)
(-0.00164537 0 0)
(-0.00164537 0 0)
(-0.00164537 0 0)
(-0.00164537 0 0)
(-0.00164537 0 0)
(-0.00164537 0 0)
(-0.00164537 0 0)
(-0.00164537 0 0)
(-0.00164537 0 0)
(-0.00164537 0 0)
(-0.00164537 0 0)
(-0.00164537 0 0)
(-0.00164536 0 0)
(-0.00164537 0 0)
(-0.00164537 0 0)
(-0.00164536 0 0)
(-0.00164537 0 0)
(-0.00164536 0 0)
(-0.00164536 0 0)
(-0.00164536 0 0)
(-0.00164536 0 0)
(-0.00164536 0 0)
(-0.00164536 0 0)
(-0.00164536 0 0)
(-0.00164536 0 0)
(-0.00164536 0 0)
(-0.00164536 0 0)
(-0.00164536 0 0)
(-0.00164536 0 0)
(-0.00164536 0 0)
(-0.00164536 0 0)
(-0.00164536 0 0)
(-0.00164536 0 0)
(-0.00164536 0 0)
(-0.00164536 0 0)
(-0.00164535 0 0)
(-0.00164536 0 0)
(-0.00164536 0 0)
(-0.00164535 0 0)
(-0.00164536 0 0)
(-0.00164535 0 0)
(-0.00164536 0 0)
(-0.00164535 0 0)
(-0.00164535 0 0)
(-0.00164535 0 0)
(-0.00164535 0 0)
(-0.00164535 0 0)
(-0.00164535 0 0)
(-0.00164535 0 0)
(-0.00164535 0 0)
(-0.00164535 0 0)
(-0.00164535 0 0)
(-0.00164535 0 0)
(-0.00164535 0 0)
(-0.00164535 0 0)
(-0.00164534 0 0)
(-0.00164535 0 0)
(-0.00164534 0 0)
(-0.00164534 0 0)
(-0.00164534 0 0)
(-0.00164534 0 0)
(-0.00164534 0 0)
(-0.00164534 0 0)
(-0.00164534 0 0)
(-0.00164534 0 0)
(-0.00164534 0 0)
(-0.00164534 0 0)
(-0.00164534 0 0)
(-0.00164534 0 0)
(-0.00164534 0 0)
(-0.00164534 0 0)
(-0.00164534 0 0)
(-0.00164534 0 0)
(-0.00164534 0 0)
(-0.00164534 0 0)
(-0.00164534 0 0)
(-0.00164534 0 0)
(-0.00164534 0 0)
(-0.00164534 0 0)
(-0.00164534 0 0)
(-0.00164534 0 0)
(-0.00164534 0 0)
(-0.00164535 0 0)
(-0.00164535 0 0)
(-0.00164534 0 0)
(-0.00164535 0 0)
(-0.00164535 0 0)
(-0.00164535 0 0)
(-0.00164535 0 0)
(-0.00164535 0 0)
(-0.00164535 0 0)
(-0.00164535 0 0)
(-0.00164535 0 0)
(-0.00164535 0 0)
(-0.00164535 0 0)
(-0.00164536 0 0)
(-0.00164536 0 0)
(-0.00164536 0 0)
(-0.00164536 0 0)
(-0.00164536 0 0)
(-0.00164536 0 0)
(-0.00164536 0 0)
(-0.00164537 0 0)
(-0.00164537 0 0)
(-0.00164537 0 0)
(-0.00164537 0 0)
(-0.00164538 0 0)
(-0.00164538 0 0)
(-0.00164538 0 0)
(-0.00164538 0 0)
(-0.00164539 0 0)
(-0.00164539 0 0)
(-0.00164539 0 0)
(-0.0016454 0 0)
(-0.0016454 0 0)
(-0.00164541 0 0)
(-0.00164541 0 0)
(-0.00164542 0 0)
(-0.00164542 0 0)
(-0.00164543 0 0)
(-0.00164543 0 0)
(-0.00164544 0 0)
(-0.00164545 0 0)
(-0.00164545 0 0)
(-0.00164546 0 0)
(-0.00164547 0 0)
(-0.00164548 0 0)
(-0.00164549 0 0)
(-0.0016455 0 0)
(-0.00164552 0 0)
(-0.00164553 0 0)
(-0.00164554 0 0)
(-0.00164556 0 0)
(-0.00164558 0 0)
(-0.00164559 0 0)
(-0.00164561 0 0)
(-0.00164563 0 0)
(-0.00164566 0 0)
(-0.00164568 0 0)
(-0.00164571 0 0)
(-0.00164573 0 0)
(-0.00164576 0 0)
(-0.00164579 0 0)
(-0.00164583 0 0)
(-0.00164587 0 0)
(-0.00164591 0 0)
(-0.00164595 0 0)
(-0.00164599 0 0)
(-0.00164604 0 0)
(-0.0016461 0 0)
(-0.00164615 0 0)
(-0.00164621 0 0)
(-0.00164628 0 0)
(-0.00164635 0 0)
(-0.00164642 0 0)
(-0.0016465 0 0)
(-0.00164659 0 0)
(-0.00164668 0 0)
(-0.00164678 0 0)
(-0.00164689 0 0)
(-0.001647 0 0)
(-0.00164712 0 0)
(-0.00164725 0 0)
(-0.00164739 0 0)
(-0.00164754 0 0)
(-0.00164769 0 0)
(-0.00164786 0 0)
(-0.00164804 0 0)
(-0.00164823 0 0)
(-0.00164844 0 0)
(-0.00164865 0 0)
(-0.00164889 0 0)
(-0.00164913 0 0)
(-0.0016494 0 0)
(-0.00164968 0 0)
(-0.00164997 0 0)
(-0.00165029 0 0)
(-0.00165063 0 0)
(-0.00165098 0 0)
(-0.00165136 0 0)
(-0.00165177 0 0)
(-0.00165219 0 0)
(-0.00165265 0 0)
(-0.00165313 0 0)
(-0.00165363 0 0)
(-0.00165417 0 0)
(-0.00165474 0 0)
(-0.00165535 0 0)
(-0.00165599 0 0)
(-0.00165666 0 0)
(-0.00165738 0 0)
(-0.00165813 0 0)
(-0.00165893 0 0)
(-0.00165978 0 0)
(-0.00166067 0 0)
(-0.0016616 0 0)
(-0.00166259 0 0)
(-0.00166364 0 0)
(-0.00166474 0 0)
(-0.00166589 0 0)
(-0.00166711 0 0)
(-0.00166839 0 0)
(-0.00166974 0 0)
(-0.00167116 0 0)
(-0.00167265 0 0)
(-0.00167422 0 0)
(-0.00167586 0 0)
(-0.00167759 0 0)
(-0.0016794 0 0)
(-0.0016813 0 0)
(-0.00168329 0 0)
(-0.00168538 0 0)
(-0.00168757 0 0)
(-0.00168986 0 0)
(-0.00169225 0 0)
(-0.00169476 0 0)
(-0.00169738 0 0)
(-0.00170012 0 0)
(-0.00170298 0 0)
(-0.00170597 0 0)
(-0.00170909 0 0)
(-0.00171234 0 0)
(-0.00171574 0 0)
(-0.00171928 0 0)
(-0.00172296 0 0)
(-0.0017268 0 0)
(-0.0017308 0 0)
(-0.00173496 0 0)
(-0.00173929 0 0)
(-0.00174379 0 0)
(-0.00174847 0 0)
(-0.00175332 0 0)
(-0.00175837 0 0)
(-0.0017636 0 0)
(-0.00176903 0 0)
(-0.00177466 0 0)
(-0.0017805 0 0)
(-0.00178655 0 0)
(-0.00179281 0 0)
(-0.00179929 0 0)
(-0.001806 0 0)
(-0.00181293 0 0)
(-0.0018201 0 0)
(-0.0018275 0 0)
(-0.00183515 0 0)
(-0.00184304 0 0)
(-0.00185118 0 0)
(-0.00185958 0 0)
(-0.00186824 0 0)
(-0.00187715 0 0)
(-0.00188634 0 0)
(-0.00189579 0 0)
(-0.00190551 0 0)
(-0.00191551 0 0)
(-0.00192579 0 0)
(-0.00193635 0 0)
(-0.00194719 0 0)
(-0.00195831 0 0)
(-0.00196972 0 0)
(-0.00198142 0 0)
(-0.00199341 0 0)
(-0.00200569 0 0)
(-0.00201826 0 0)
(-0.00203112 0 0)
(-0.00204427 0 0)
(-0.00205772 0 0)
(-0.00207145 0 0)
(-0.00208547 0 0)
(-0.00209977 0 0)
(-0.00211436 0 0)
(-0.00212923 0 0)
(-0.00214438 0 0)
(-0.0021598 0 0)
(-0.0021755 0 0)
(-0.00219145 0 0)
(-0.00220767 0 0)
(-0.00222414 0 0)
(-0.00224085 0 0)
(-0.00225781 0 0)
(-0.002275 0 0)
(-0.00229241 0 0)
(-0.00231003 0 0)
(-0.00232786 0 0)
(-0.00234588 0 0)
(-0.00236408 0 0)
(-0.00238245 0 0)
(-0.00240098 0 0)
(-0.00241966 0 0)
(-0.00243846 0 0)
(-0.00245737 0 0)
(-0.00247638 0 0)
(-0.00249547 0 0)
(-0.00251461 0 0)
(-0.0025338 0 0)
(-0.00255302 0 0)
(-0.00257223 0 0)
(-0.00259142 0 0)
(-0.00261056 0 0)
(-0.00262964 0 0)
(-0.00264861 0 0)
(-0.00266747 0 0)
(-0.00268618 0 0)
(-0.00270471 0 0)
(-0.00272302 0 0)
(-0.0027411 0 0)
(-0.0027589 0 0)
(-0.00277639 0 0)
(-0.00279354 0 0)
(-0.0028103 0 0)
(-0.00282665 0 0)
(-0.00284253 0 0)
(-0.00285791 0 0)
(-0.00287274 0 0)
(-0.00288698 0 0)
(-0.00290058 0 0)
(-0.00291351 0 0)
(-0.0029257 0 0)
(-0.00293713 0 0)
(-0.00294779 0 0)
(-0.00295749 0 0)
(-0.00296603 0 0)
(-0.00297337 0 0)
(-0.00297953 0 0)
(-0.00298453 0 0)
(-0.00298832 0 0)
(-0.00299077 0 0)
(-0.00299179 0 0)
(-0.00299132 0 0)
(-0.0029892 0 0)
(-0.00298537 0 0)
(-0.00297972 0 0)
(-0.0029721 0 0)
(-0.00296244 0 0)
(-0.00295058 0 0)
(-0.00293642 0 0)
(-0.00291981 0 0)
(-0.00290063 0 0)
(-0.00287871 0 0)
(-0.00285392 0 0)
(-0.00282611 0 0)
(-0.00279512 0 0)
(-0.00276078 0 0)
(-0.00272294 0 0)
(-0.00268144 0 0)
(-0.00263612 0 0)
(-0.00258682 0 0)
(-0.00253341 0 0)
(-0.00247574 0 0)
(-0.00241369 0 0)
(-0.00234714 0 0)
(-0.00227614 0 0)
(-0.00220094 0 0)
(-0.00212152 0 0)
(-0.00203473 0 0)
(-0.00193354 0 0)
(-0.00183372 0 0)
)
;

boundaryField
{
    fixedWall
    {
        type            fixedValue;
        value           uniform (0 0 0);
    }
    outlet
    {
        type            pressureInletOutletVelocity;
        value           uniform (-0.00183372 0 0);
    }
    defaultFaces
    {
        type            empty;
    }
}


// ************************************************************************* //
