/*--------------------------------*- C++ -*----------------------------------*\
| =========                 |                                                 |
| \\      /  F ield         | OpenFOAM: The Open Source CFD Toolbox           |
|  \\    /   O peration     | Version:  2406                                  |
|   \\  /    A nd           | Website:  www.openfoam.com                      |
|    \\/     M anipulation  |                                                 |
\*---------------------------------------------------------------------------*/
FoamFile
{
    version     2.0;
    format      ascii;
    arch        "LSB;label=32;scalar=64";
    class       volScalarField;
    location    "14.8";
    object      O2;
}
// * * * * * * * * * * * * * * * * * * * * * * * * * * * * * * * * * * * * * //

dimensions      [0 0 0 0 0 0 0];

internalField   nonuniform List<scalar> 
1000
(
9.82327e-07
9.81049e-07
9.78698e-07
9.75423e-07
9.71345e-07
9.66559e-07
9.61144e-07
9.55164e-07
9.48677e-07
9.4173e-07
9.34365e-07
9.2662e-07
9.18529e-07
9.10121e-07
9.01423e-07
8.92461e-07
8.83256e-07
8.7383e-07
8.64203e-07
8.54391e-07
8.44412e-07
8.34282e-07
8.24016e-07
8.13627e-07
8.03128e-07
7.92534e-07
7.81854e-07
7.71102e-07
7.60288e-07
7.49422e-07
7.38515e-07
7.27576e-07
7.16616e-07
7.05642e-07
6.94666e-07
6.83694e-07
6.72736e-07
6.61799e-07
6.50893e-07
6.40024e-07
6.29201e-07
6.1843e-07
6.0772e-07
5.97077e-07
5.86507e-07
5.76019e-07
5.65617e-07
5.55309e-07
5.45099e-07
5.34994e-07
5.24999e-07
5.1512e-07
5.05361e-07
4.95726e-07
4.86221e-07
4.76848e-07
4.67613e-07
4.58518e-07
4.49567e-07
4.40762e-07
4.32106e-07
4.23601e-07
4.1525e-07
4.07054e-07
3.99015e-07
3.91133e-07
3.8341e-07
3.75847e-07
3.68443e-07
3.612e-07
3.54117e-07
3.47193e-07
3.40428e-07
3.33823e-07
3.27375e-07
3.21083e-07
3.14948e-07
3.08966e-07
3.03137e-07
2.97459e-07
2.91931e-07
2.8655e-07
2.81314e-07
2.76221e-07
2.7127e-07
2.66457e-07
2.61781e-07
2.57239e-07
2.52829e-07
2.48548e-07
2.44394e-07
2.40364e-07
2.36456e-07
2.32667e-07
2.28995e-07
2.25436e-07
2.21989e-07
2.1865e-07
2.15418e-07
2.1229e-07
2.09262e-07
2.06333e-07
2.035e-07
2.00761e-07
1.98112e-07
1.95553e-07
1.93079e-07
1.9069e-07
1.88382e-07
1.86153e-07
1.84002e-07
1.81925e-07
1.79921e-07
1.77988e-07
1.76123e-07
1.74325e-07
1.72591e-07
1.70919e-07
1.69309e-07
1.67757e-07
1.66262e-07
1.64822e-07
1.63435e-07
1.62101e-07
1.60816e-07
1.5958e-07
1.58391e-07
1.57247e-07
1.56147e-07
1.55089e-07
1.54073e-07
1.53096e-07
1.52158e-07
1.51257e-07
1.50391e-07
1.4956e-07
1.48763e-07
1.47998e-07
1.47264e-07
1.4656e-07
1.45885e-07
1.45239e-07
1.44619e-07
1.44025e-07
1.43457e-07
1.42913e-07
1.42392e-07
1.41894e-07
1.41418e-07
1.40962e-07
1.40527e-07
1.40112e-07
1.39715e-07
1.39336e-07
1.38975e-07
1.3863e-07
1.38302e-07
1.37989e-07
1.37691e-07
1.37408e-07
1.37139e-07
1.36883e-07
1.3664e-07
1.36409e-07
1.3619e-07
1.35982e-07
1.35786e-07
1.356e-07
1.35425e-07
1.35259e-07
1.35103e-07
1.34956e-07
1.34817e-07
1.34687e-07
1.34565e-07
1.34451e-07
1.34344e-07
1.34244e-07
1.34151e-07
1.34065e-07
1.33985e-07
1.33911e-07
1.33843e-07
1.3378e-07
1.33723e-07
1.33671e-07
1.33624e-07
1.33582e-07
1.33544e-07
1.33511e-07
1.33482e-07
1.33457e-07
1.33435e-07
1.33418e-07
1.33404e-07
1.33393e-07
1.33386e-07
1.33382e-07
1.33381e-07
1.33382e-07
1.33387e-07
1.33394e-07
1.33403e-07
1.33415e-07
1.3343e-07
1.33446e-07
1.33465e-07
1.33486e-07
1.33508e-07
1.33533e-07
1.33559e-07
1.33587e-07
1.33617e-07
1.33648e-07
1.33681e-07
1.33716e-07
1.33751e-07
1.33788e-07
1.33827e-07
1.33866e-07
1.33906e-07
1.33948e-07
1.33991e-07
1.34035e-07
1.3408e-07
1.34125e-07
1.34172e-07
1.34219e-07
1.34267e-07
1.34316e-07
1.34366e-07
1.34417e-07
1.34468e-07
1.34519e-07
1.34572e-07
1.34625e-07
1.34678e-07
1.34732e-07
1.34787e-07
1.34842e-07
1.34898e-07
1.34954e-07
1.3501e-07
1.35067e-07
1.35124e-07
1.35182e-07
1.3524e-07
1.35298e-07
1.35357e-07
1.35416e-07
1.35476e-07
1.35535e-07
1.35595e-07
1.35655e-07
1.35716e-07
1.35776e-07
1.35837e-07
1.35898e-07
1.3596e-07
1.36021e-07
1.36083e-07
1.36145e-07
1.36207e-07
1.36269e-07
1.36332e-07
1.36394e-07
1.36457e-07
1.3652e-07
1.36583e-07
1.36646e-07
1.3671e-07
1.36773e-07
1.36837e-07
1.369e-07
1.36964e-07
1.37028e-07
1.37092e-07
1.37156e-07
1.37221e-07
1.37285e-07
1.37349e-07
1.37414e-07
1.37478e-07
1.37543e-07
1.37608e-07
1.37673e-07
1.37738e-07
1.37803e-07
1.37868e-07
1.37933e-07
1.37998e-07
1.38064e-07
1.38129e-07
1.38195e-07
1.3826e-07
1.38326e-07
1.38391e-07
1.38457e-07
1.38523e-07
1.38589e-07
1.38655e-07
1.38721e-07
1.38787e-07
1.38853e-07
1.38919e-07
1.38985e-07
1.39052e-07
1.39118e-07
1.39184e-07
1.39251e-07
1.39317e-07
1.39384e-07
1.39451e-07
1.39517e-07
1.39584e-07
1.39651e-07
1.39718e-07
1.39785e-07
1.39852e-07
1.39919e-07
1.39986e-07
1.40053e-07
1.4012e-07
1.40187e-07
1.40255e-07
1.40322e-07
1.4039e-07
1.40457e-07
1.40525e-07
1.40592e-07
1.4066e-07
1.40728e-07
1.40796e-07
1.40863e-07
1.40931e-07
1.40999e-07
1.41067e-07
1.41135e-07
1.41204e-07
1.41272e-07
1.4134e-07
1.41408e-07
1.41477e-07
1.41545e-07
1.41614e-07
1.41683e-07
1.41751e-07
1.4182e-07
1.41889e-07
1.41957e-07
1.42026e-07
1.42095e-07
1.42164e-07
1.42234e-07
1.42303e-07
1.42372e-07
1.42441e-07
1.42511e-07
1.4258e-07
1.4265e-07
1.42719e-07
1.42789e-07
1.42858e-07
1.42928e-07
1.42998e-07
1.43068e-07
1.43138e-07
1.43208e-07
1.43278e-07
1.43349e-07
1.43419e-07
1.43489e-07
1.43559e-07
1.4363e-07
1.437e-07
1.43771e-07
1.43842e-07
1.43913e-07
1.43983e-07
1.44054e-07
1.44125e-07
1.44196e-07
1.44267e-07
1.44339e-07
1.4441e-07
1.44481e-07
1.44552e-07
1.44624e-07
1.44695e-07
1.44767e-07
1.44839e-07
1.44911e-07
1.44982e-07
1.45054e-07
1.45126e-07
1.45198e-07
1.45271e-07
1.45343e-07
1.45415e-07
1.45487e-07
1.4556e-07
1.45632e-07
1.45705e-07
1.45778e-07
1.4585e-07
1.45923e-07
1.45996e-07
1.46069e-07
1.46142e-07
1.46215e-07
1.46288e-07
1.46362e-07
1.46435e-07
1.46509e-07
1.46582e-07
1.46655e-07
1.46729e-07
1.46803e-07
1.46876e-07
1.4695e-07
1.47024e-07
1.47098e-07
1.47173e-07
1.47247e-07
1.47321e-07
1.47395e-07
1.4747e-07
1.47544e-07
1.47619e-07
1.47693e-07
1.47768e-07
1.47843e-07
1.47918e-07
1.47993e-07
1.48068e-07
1.48143e-07
1.48218e-07
1.48293e-07
1.48369e-07
1.48444e-07
1.48519e-07
1.48595e-07
1.48671e-07
1.48746e-07
1.48822e-07
1.48898e-07
1.48974e-07
1.4905e-07
1.49126e-07
1.49203e-07
1.49279e-07
1.49355e-07
1.49432e-07
1.49508e-07
1.49585e-07
1.49661e-07
1.49738e-07
1.49815e-07
1.49892e-07
1.49969e-07
1.50046e-07
1.50123e-07
1.502e-07
1.50277e-07
1.50355e-07
1.50432e-07
1.5051e-07
1.50588e-07
1.50665e-07
1.50743e-07
1.50821e-07
1.50899e-07
1.50977e-07
1.51055e-07
1.51133e-07
1.51212e-07
1.5129e-07
1.51368e-07
1.51447e-07
1.51526e-07
1.51604e-07
1.51683e-07
1.51762e-07
1.51841e-07
1.5192e-07
1.51999e-07
1.52078e-07
1.52157e-07
1.52237e-07
1.52316e-07
1.52396e-07
1.52475e-07
1.52555e-07
1.52635e-07
1.52715e-07
1.52795e-07
1.52875e-07
1.52955e-07
1.53035e-07
1.53115e-07
1.53196e-07
1.53276e-07
1.53356e-07
1.53437e-07
1.53518e-07
1.53599e-07
1.53679e-07
1.5376e-07
1.53841e-07
1.53923e-07
1.54004e-07
1.54085e-07
1.54167e-07
1.54248e-07
1.5433e-07
1.54411e-07
1.54493e-07
1.54575e-07
1.54657e-07
1.54739e-07
1.54821e-07
1.54903e-07
1.54985e-07
1.55067e-07
1.5515e-07
1.55232e-07
1.55315e-07
1.55397e-07
1.5548e-07
1.55563e-07
1.55646e-07
1.55729e-07
1.55812e-07
1.55895e-07
1.55979e-07
1.56062e-07
1.56146e-07
1.56229e-07
1.56313e-07
1.56397e-07
1.5648e-07
1.56564e-07
1.56648e-07
1.56732e-07
1.56817e-07
1.56901e-07
1.56985e-07
1.5707e-07
1.57154e-07
1.57239e-07
1.57324e-07
1.57408e-07
1.57493e-07
1.57578e-07
1.57663e-07
1.57749e-07
1.57834e-07
1.57919e-07
1.58005e-07
1.5809e-07
1.58176e-07
1.58262e-07
1.58347e-07
1.58433e-07
1.58519e-07
1.58605e-07
1.58692e-07
1.58778e-07
1.58864e-07
1.58951e-07
1.59037e-07
1.59124e-07
1.59211e-07
1.59298e-07
1.59385e-07
1.59472e-07
1.59559e-07
1.59646e-07
1.59733e-07
1.59821e-07
1.59908e-07
1.59996e-07
1.60084e-07
1.60172e-07
1.6026e-07
1.60348e-07
1.60436e-07
1.60524e-07
1.60612e-07
1.60701e-07
1.60789e-07
1.60878e-07
1.60966e-07
1.61055e-07
1.61144e-07
1.61233e-07
1.61322e-07
1.61411e-07
1.61501e-07
1.6159e-07
1.6168e-07
1.61769e-07
1.61859e-07
1.61949e-07
1.62039e-07
1.62129e-07
1.62219e-07
1.62309e-07
1.62399e-07
1.6249e-07
1.6258e-07
1.62671e-07
1.62761e-07
1.62852e-07
1.62943e-07
1.63034e-07
1.63125e-07
1.63216e-07
1.63308e-07
1.63399e-07
1.63491e-07
1.63582e-07
1.63674e-07
1.63766e-07
1.63858e-07
1.6395e-07
1.64042e-07
1.64134e-07
1.64227e-07
1.64319e-07
1.64412e-07
1.64504e-07
1.64597e-07
1.6469e-07
1.64783e-07
1.64876e-07
1.64969e-07
1.65063e-07
1.65156e-07
1.6525e-07
1.65343e-07
1.65437e-07
1.65531e-07
1.65625e-07
1.65719e-07
1.65813e-07
1.65907e-07
1.66002e-07
1.66096e-07
1.66191e-07
1.66286e-07
1.6638e-07
1.66475e-07
1.6657e-07
1.66666e-07
1.66761e-07
1.66856e-07
1.66951e-07
1.67047e-07
1.67142e-07
1.67238e-07
1.67334e-07
1.6743e-07
1.67526e-07
1.67622e-07
1.67719e-07
1.67815e-07
1.67912e-07
1.68008e-07
1.68105e-07
1.68202e-07
1.68299e-07
1.68396e-07
1.68493e-07
1.6859e-07
1.68688e-07
1.68785e-07
1.68883e-07
1.6898e-07
1.69078e-07
1.69176e-07
1.69274e-07
1.69372e-07
1.69471e-07
1.69569e-07
1.69668e-07
1.69766e-07
1.69865e-07
1.69964e-07
1.70063e-07
1.70162e-07
1.70261e-07
1.70361e-07
1.7046e-07
1.7056e-07
1.70659e-07
1.70759e-07
1.70859e-07
1.70959e-07
1.71059e-07
1.7116e-07
1.7126e-07
1.71361e-07
1.71461e-07
1.71562e-07
1.71663e-07
1.71764e-07
1.71865e-07
1.71967e-07
1.72068e-07
1.7217e-07
1.72271e-07
1.72373e-07
1.72475e-07
1.72577e-07
1.7268e-07
1.72782e-07
1.72885e-07
1.72987e-07
1.7309e-07
1.73193e-07
1.73296e-07
1.734e-07
1.73503e-07
1.73607e-07
1.73711e-07
1.73815e-07
1.73919e-07
1.74023e-07
1.74128e-07
1.74233e-07
1.74338e-07
1.74443e-07
1.74548e-07
1.74654e-07
1.7476e-07
1.74866e-07
1.74972e-07
1.75078e-07
1.75185e-07
1.75292e-07
1.75399e-07
1.75507e-07
1.75614e-07
1.75723e-07
1.75831e-07
1.7594e-07
1.76049e-07
1.76158e-07
1.76268e-07
1.76378e-07
1.76488e-07
1.76599e-07
1.76711e-07
1.76822e-07
1.76935e-07
1.77047e-07
1.77161e-07
1.77274e-07
1.77389e-07
1.77504e-07
1.77619e-07
1.77735e-07
1.77852e-07
1.7797e-07
1.78088e-07
1.78207e-07
1.78327e-07
1.78448e-07
1.7857e-07
1.78693e-07
1.78816e-07
1.78941e-07
1.79067e-07
1.79194e-07
1.79323e-07
1.79453e-07
1.79584e-07
1.79717e-07
1.79851e-07
1.79987e-07
1.80125e-07
1.80264e-07
1.80406e-07
1.80549e-07
1.80695e-07
1.80843e-07
1.80993e-07
1.81146e-07
1.81302e-07
1.8146e-07
1.81622e-07
1.81786e-07
1.81954e-07
1.82125e-07
1.823e-07
1.82479e-07
1.82662e-07
1.82849e-07
1.83041e-07
1.83237e-07
1.83439e-07
1.83645e-07
1.83858e-07
1.84076e-07
1.843e-07
1.8453e-07
1.84768e-07
1.85012e-07
1.85265e-07
1.85525e-07
1.85793e-07
1.8607e-07
1.86356e-07
1.86652e-07
1.86958e-07
1.87274e-07
1.87602e-07
1.87941e-07
1.88293e-07
1.88657e-07
1.89035e-07
1.89427e-07
1.89834e-07
1.90256e-07
1.90695e-07
1.9115e-07
1.91624e-07
1.92116e-07
1.92628e-07
1.9316e-07
1.93714e-07
1.9429e-07
1.9489e-07
1.95514e-07
1.96164e-07
1.96841e-07
1.97545e-07
1.98279e-07
1.99043e-07
1.9984e-07
2.00669e-07
2.01534e-07
2.02434e-07
2.03372e-07
2.0435e-07
2.05369e-07
2.0643e-07
2.07537e-07
2.08689e-07
2.0989e-07
2.11141e-07
2.12445e-07
2.13803e-07
2.15217e-07
2.16691e-07
2.18225e-07
2.19824e-07
2.21488e-07
2.2322e-07
2.25024e-07
2.26902e-07
2.28856e-07
2.3089e-07
2.33005e-07
2.35206e-07
2.37496e-07
2.39876e-07
2.42351e-07
2.44924e-07
2.47598e-07
2.50377e-07
2.53263e-07
2.56261e-07
2.59375e-07
2.62606e-07
2.65961e-07
2.69441e-07
2.73052e-07
2.76796e-07
2.80679e-07
2.84703e-07
2.88872e-07
2.93191e-07
2.97664e-07
3.02294e-07
3.07086e-07
3.12043e-07
3.17169e-07
3.22469e-07
3.27945e-07
3.33603e-07
3.39445e-07
3.45474e-07
3.51696e-07
3.58111e-07
3.64725e-07
3.71539e-07
3.78556e-07
3.85779e-07
3.93211e-07
4.00852e-07
4.08704e-07
4.16769e-07
4.25047e-07
4.33539e-07
4.42245e-07
4.51163e-07
4.60294e-07
4.69634e-07
4.79182e-07
4.88934e-07
4.98888e-07
5.09037e-07
5.19377e-07
5.29901e-07
5.40603e-07
5.51474e-07
5.62504e-07
5.73685e-07
5.85003e-07
5.96448e-07
6.08005e-07
6.1966e-07
6.31396e-07
6.43196e-07
6.55042e-07
6.66914e-07
6.78791e-07
6.9065e-07
7.02467e-07
7.14218e-07
7.25876e-07
7.37413e-07
7.48802e-07
7.60012e-07
7.71012e-07
7.81771e-07
7.92255e-07
8.02431e-07
8.12265e-07
8.21721e-07
8.30765e-07
8.39359e-07
8.47469e-07
8.55058e-07
8.62088e-07
8.68525e-07
8.74333e-07
8.79475e-07
8.83918e-07
8.87626e-07
8.90567e-07
8.92709e-07
8.94015e-07
8.94457e-07
8.94017e-07
8.92659e-07
8.90359e-07
8.87092e-07
8.82836e-07
8.77571e-07
8.71277e-07
8.63938e-07
8.55539e-07
8.46068e-07
8.35514e-07
8.23869e-07
8.11128e-07
7.97287e-07
7.82345e-07
7.66305e-07
7.49172e-07
7.30953e-07
7.11658e-07
6.91303e-07
6.69906e-07
6.47486e-07
6.24071e-07
5.9969e-07
5.74377e-07
5.48172e-07
5.21119e-07
4.9327e-07
4.64681e-07
4.35416e-07
4.05547e-07
3.75153e-07
3.44322e-07
3.13153e-07
2.81752e-07
2.5024e-07
2.18748e-07
1.87418e-07
1.56408e-07
1.25887e-07
9.6038e-08
6.70579e-08
3.91543e-08
1.25446e-08
)
;

boundaryField
{
    fixedWall
    {
        type            zeroGradient;
    }
    outlet
    {
        type            inletOutlet;
        inletValue      uniform 0;
        value           uniform 0;
    }
    defaultFaces
    {
        type            empty;
    }
}


// ************************************************************************* //
