/*--------------------------------*- C++ -*----------------------------------*\
| =========                 |                                                 |
| \\      /  F ield         | OpenFOAM: The Open Source CFD Toolbox           |
|  \\    /   O peration     | Version:  2406                                  |
|   \\  /    A nd           | Website:  www.openfoam.com                      |
|    \\/     M anipulation  |                                                 |
\*---------------------------------------------------------------------------*/
FoamFile
{
    version     2.0;
    format      ascii;
    arch        "LSB;label=32;scalar=64";
    class       volScalarField;
    location    "14.8";
    object      Qdot;
}
// * * * * * * * * * * * * * * * * * * * * * * * * * * * * * * * * * * * * * //

dimensions      [1 -1 -3 0 0 0 0];

internalField   nonuniform List<scalar> 
1000
(
-4.98416e-14
-9.94948e-18
-1.00501e-16
-7.07419e-16
3.80443e-09
9.70653e-09
3.04354e-08
8.61298e-08
2.28484e-07
5.5816e-07
1.25503e-06
2.61885e-06
5.12198e-06
9.45283e-06
1.65928e-05
2.78567e-05
4.49538e-05
7.00284e-05
0.00010569
0.000155
0.000221495
0.000309124
0.000422229
0.000565439
0.000743621
0.000961743
0.0012248
0.00153769
0.00190505
0.00233121
0.00282006
0.00337493
0.00399852
0.00469281
0.00545903
0.00629761
0.00720812
0.00818932
0.00923912
0.0103547
0.0115323
0.0127677
0.0140559
0.0153913
0.0167679
0.0181793
0.0196188
0.0210794
0.0225542
0.0240359
0.0255176
0.0269923
0.0284534
0.0298944
0.0313092
0.032692
0.0340376
0.0353411
0.0365981
0.0378046
0.0389574
0.0400535
0.0410905
0.0420667
0.0429805
0.043831
0.0446178
0.0453407
0.0460001
0.0465965
0.0471311
0.0476049
0.0480197
0.048377
0.048679
0.0489276
0.0491252
0.0492741
0.0493767
0.0494357
0.0494535
0.0494327
0.0493758
0.0492855
0.0491642
0.0490143
0.0488384
0.0486387
0.0484175
0.0481771
0.0479194
0.0476465
0.0473603
0.0470626
0.0467551
0.0464395
0.0461173
0.0457898
0.0454585
0.0451245
0.044789
0.044453
0.0441175
0.0437835
0.0434517
0.0431229
0.0427977
0.0424767
0.0421605
0.0418496
0.0415443
0.0412451
0.0409523
0.0406661
0.0403869
0.0401147
0.0398497
0.0395921
0.039342
0.0390994
0.0388643
0.0386369
0.038417
0.0382046
0.0379998
0.0378023
0.0376123
0.0374295
0.0372539
0.0370854
0.0369238
0.036769
0.0366209
0.0364794
0.0363443
0.0362154
0.0360927
0.0359759
0.0358649
0.0357596
0.0356598
0.0355653
0.035476
0.0353918
0.0353124
0.0352377
0.0351676
0.0351019
0.0350406
0.0349833
0.03493
0.0348806
0.0348349
0.0347927
0.0347541
0.0347187
0.0346865
0.0346574
0.0346313
0.034608
0.0345874
0.0345694
0.034554
0.0345409
0.0345302
0.0345217
0.0345153
0.0345109
0.0345085
0.0345079
0.0345091
0.034512
0.0345165
0.0345226
0.0345302
0.0345391
0.0345494
0.034561
0.0345738
0.0345878
0.0346029
0.034619
0.0346362
0.0346543
0.0346733
0.0346932
0.0347139
0.0347353
0.0347576
0.0347804
0.0348041
0.0348283
0.0348531
0.0348785
0.0349044
0.0349308
0.0349576
0.0349849
0.0350128
0.035041
0.0350697
0.0350986
0.0351278
0.0351574
0.0351874
0.0352177
0.0352482
0.0352791
0.0353101
0.0353413
0.0353728
0.0354045
0.0354365
0.0354686
0.0355009
0.0355333
0.0355659
0.0355987
0.0356315
0.0356646
0.0356977
0.035731
0.0357643
0.0357978
0.0358314
0.0358651
0.0358988
0.0359327
0.0359666
0.0360006
0.0360347
0.0360689
0.0361031
0.0361373
0.0361716
0.0362059
0.0362404
0.0362749
0.0363094
0.036344
0.0363787
0.0364134
0.0364481
0.0364829
0.0365177
0.0365526
0.0365875
0.0366224
0.0366574
0.0366925
0.0367275
0.0367626
0.0367977
0.0368329
0.0368681
0.0369033
0.0369386
0.0369739
0.0370093
0.0370446
0.03708
0.0371155
0.037151
0.0371865
0.037222
0.0372576
0.0372932
0.0373288
0.0373645
0.0374002
0.037436
0.0374717
0.0375076
0.0375434
0.0375793
0.0376152
0.0376512
0.0376872
0.0377231
0.0377592
0.0377953
0.0378314
0.0378676
0.0379038
0.0379401
0.0379764
0.0380127
0.0380491
0.0380855
0.0381219
0.0381584
0.0381949
0.0382315
0.0382681
0.0383048
0.0383413
0.0383781
0.0384149
0.0384517
0.0384886
0.0385255
0.0385624
0.0385994
0.0386364
0.0386735
0.0387106
0.0387478
0.038785
0.0388223
0.0388596
0.0388969
0.0389343
0.0389718
0.0390093
0.0390468
0.0390843
0.0391219
0.0391597
0.0391973
0.0392351
0.0392729
0.0393108
0.0393487
0.0393867
0.0394247
0.0394628
0.0395009
0.0395391
0.0395773
0.0396156
0.039654
0.0396924
0.0397308
0.0397692
0.0398077
0.0398462
0.0398849
0.0399236
0.0399623
0.0400012
0.04004
0.0400788
0.0401178
0.0401568
0.0401959
0.040235
0.0402742
0.0403134
0.0403527
0.0403921
0.0404315
0.040471
0.0405105
0.0405501
0.0405897
0.0406293
0.0406691
0.0407089
0.0407486
0.0407886
0.0408285
0.0408686
0.0409087
0.0409489
0.0409891
0.0410294
0.0410697
0.0411101
0.0411505
0.0411911
0.0412316
0.0412723
0.0413129
0.0413537
0.0413945
0.0414354
0.0414763
0.0415172
0.0415583
0.0415994
0.0416404
0.0416817
0.041723
0.0417644
0.0418058
0.0418473
0.0418888
0.0419304
0.0419721
0.0420138
0.0420556
0.0420975
0.0421394
0.0421814
0.0422235
0.0422655
0.0423077
0.0423499
0.0423922
0.0424346
0.0424771
0.0425196
0.0425621
0.0426047
0.0426474
0.0426902
0.042733
0.0427759
0.0428188
0.0428618
0.0429049
0.042948
0.0429912
0.0430345
0.0430778
0.0431212
0.0431647
0.0432082
0.0432518
0.0432955
0.0433392
0.043383
0.0434269
0.0434708
0.0435148
0.0435589
0.043603
0.0436472
0.0436915
0.0437358
0.0437802
0.0438247
0.0438692
0.0439138
0.0439585
0.0440032
0.044048
0.0440929
0.0441379
0.0441829
0.044228
0.0442731
0.0443184
0.0443637
0.044409
0.0444545
0.0445
0.0445455
0.0445912
0.0446369
0.0446827
0.0447285
0.0447745
0.0448205
0.0448666
0.0449125
0.0449588
0.0450051
0.0450514
0.0450979
0.0451444
0.0451909
0.0452376
0.0452843
0.0453311
0.0453779
0.0454249
0.0454718
0.0455189
0.045566
0.0456133
0.0456605
0.0457079
0.0457554
0.0458029
0.0458505
0.0458982
0.0459459
0.0459937
0.0460416
0.0460896
0.0461376
0.0461857
0.0462339
0.0462822
0.0463305
0.0463789
0.0464274
0.046476
0.0465247
0.0465732
0.0466221
0.046671
0.0467199
0.046769
0.0468181
0.0468673
0.0469166
0.0469659
0.0470153
0.0470646
0.0471142
0.0471639
0.0472136
0.0472634
0.0473133
0.0473633
0.0474133
0.0474634
0.0475137
0.0475639
0.0476143
0.0476648
0.0477153
0.0477659
0.0478166
0.0478674
0.047918
0.047969
0.04802
0.0480711
0.0481223
0.0481735
0.0482249
0.0482763
0.0483278
0.0483793
0.048431
0.0484827
0.0485345
0.0485864
0.0486384
0.0486905
0.0487426
0.0487948
0.0488472
0.0488996
0.0489521
0.0490046
0.0490573
0.04911
0.0491628
0.0492157
0.0492687
0.0493218
0.049375
0.0494282
0.0494816
0.049535
0.0495885
0.0496421
0.0496958
0.0497495
0.0498034
0.0498573
0.0499113
0.0499654
0.0500196
0.0500739
0.0501283
0.0501828
0.0502373
0.050292
0.0503467
0.0504015
0.0504564
0.0505114
0.0505665
0.0506217
0.050677
0.0507324
0.0507878
0.0508434
0.050899
0.0509547
0.0510105
0.0510665
0.0511225
0.0511786
0.0512347
0.051291
0.0513474
0.0514039
0.0514604
0.0515171
0.0515738
0.0516307
0.0516876
0.0517446
0.0518017
0.051859
0.0519163
0.0519737
0.0520312
0.0520888
0.0521465
0.0522043
0.0522622
0.0523202
0.0523782
0.0524364
0.0524947
0.0525531
0.0526115
0.0526701
0.0527288
0.0527875
0.0528464
0.0529054
0.0529644
0.0530236
0.0530829
0.0531422
0.0532017
0.0532613
0.0533209
0.0533807
0.0534405
0.0535005
0.0535606
0.0536207
0.053681
0.0537414
0.0538019
0.0538624
0.0539231
0.0539839
0.0540448
0.0541058
0.0541669
0.0542281
0.0542894
0.0543508
0.0544123
0.0544739
0.0545356
0.0545974
0.0546594
0.0547214
0.0547836
0.0548458
0.0549082
0.0549706
0.0550332
0.0550959
0.0551587
0.0552216
0.0552846
0.0553477
0.0554109
0.0554742
0.0555377
0.0556012
0.0556649
0.0557287
0.0557925
0.0558565
0.0559207
0.0559847
0.0560488
0.0561132
0.0561777
0.0562423
0.0563071
0.0563719
0.0564369
0.056502
0.0565671
0.0566324
0.0566979
0.0567634
0.056829
0.0568948
0.0569607
0.0570267
0.0570927
0.0571586
0.0572249
0.0572913
0.0573578
0.0574245
0.0574912
0.0575581
0.057625
0.0576921
0.0577593
0.0578267
0.0578941
0.0579616
0.0580293
0.0580971
0.058165
0.058233
0.0583011
0.0583694
0.0584378
0.0585062
0.0585748
0.0586436
0.0587124
0.0587814
0.0588504
0.0589196
0.0589889
0.0590584
0.0591279
0.0591976
0.0592674
0.0593373
0.0594073
0.0594775
0.0595477
0.0596181
0.0596886
0.0597593
0.05983
0.0599009
0.0599719
0.060043
0.0601142
0.0601856
0.0602571
0.0603287
0.0604004
0.0604722
0.0605442
0.0606163
0.0606885
0.0607608
0.0608333
0.0609058
0.0609785
0.0610513
0.0611243
0.0611973
0.0612705
0.0613438
0.0614173
0.0614908
0.0615645
0.0616383
0.0617122
0.0617863
0.0618605
0.0619348
0.0620092
0.0620837
0.0621584
0.0622332
0.0623081
0.0623832
0.0624584
0.0625337
0.0626092
0.0626848
0.0627605
0.0628364
0.0629124
0.0629886
0.0630649
0.0631413
0.0632179
0.0632947
0.0633716
0.0634487
0.063526
0.0636034
0.063681
0.0637589
0.0638369
0.0639151
0.0639935
0.0640722
0.0641511
0.0642303
0.0643097
0.0643894
0.0644693
0.0645496
0.0646302
0.0647112
0.0647925
0.0648742
0.0649563
0.0650388
0.0651218
0.0652053
0.0652893
0.0653739
0.065459
0.0655448
0.0656313
0.0657185
0.0658064
0.0658952
0.0659849
0.0660755
0.0661671
0.0662597
0.0663535
0.0664485
0.0665448
0.0666425
0.0667417
0.0668424
0.0669448
0.067049
0.0671551
0.0672632
0.0673734
0.067486
0.067601
0.0677185
0.0678389
0.0679621
0.0680885
0.0682182
0.0683514
0.0684882
0.0686291
0.0687741
0.0689235
0.0690776
0.0692367
0.069401
0.0695708
0.0697465
0.0699284
0.0701169
0.0703122
0.0705147
0.070725
0.0709433
0.0711701
0.0714058
0.071651
0.071906
0.0721715
0.0724478
0.0727357
0.0730355
0.073348
0.0736737
0.0740132
0.0743671
0.0747363
0.0751213
0.0755228
0.0759416
0.0763785
0.0768342
0.0773094
0.0778051
0.0783221
0.0788611
0.0794231
0.0800089
0.0806195
0.0812558
0.0819186
0.0826089
0.0833277
0.0840758
0.0848543
0.085664
0.0865059
0.0873809
0.0882899
0.0892339
0.0902135
0.0912298
0.0922834
0.0933751
0.0945056
0.0956755
0.0968853
0.0981354
0.0994263
0.100758
0.102131
0.103545
0.105
0.106496
0.108031
0.109606
0.11122
0.11287
0.114556
0.116277
0.118029
0.119811
0.121619
0.123451
0.125304
0.127172
0.129053
0.13094
0.132829
0.134714
0.136588
0.138445
0.140277
0.142075
0.143832
0.145538
0.147184
0.148758
0.150251
0.151651
0.152947
0.154125
0.155174
0.156081
0.156833
0.157417
0.157819
0.158027
0.158028
0.15781
0.15736
0.156669
0.155724
0.154518
0.153043
0.151291
0.149258
0.146941
0.144338
0.141452
0.138284
0.134841
0.131131
0.127165
0.122956
0.118521
0.113878
0.109049
0.104057
0.0989288
0.0936913
0.0883743
0.0830088
0.0776265
0.0722598
0.066941
0.0617023
0.0565747
0.051588
0.0467702
0.0421468
0.0377407
0.0335716
0.029656
0.0260064
0.022635
0.0195656
0.0167483
0.0142093
0.0119422
0.00993761
0.00818329
0.00666446
0.00536434
0.00426468
0.00334622
0.00258924
0.0019741
0.00148161
0.00109354
0.000792838
0.000563992
0.000393126
0.000268131
0.00017867
0.000116121
7.34736e-05
4.51689e-05
2.69192e-05
1.55162e-05
8.62662e-06
4.61256e-06
2.36459e-06
1.15739e-06
5.39216e-07
2.37481e-07
9.87203e-08
3.84419e-08
1.32766e-08
4.58403e-09
1.42656e-09
3.68881e-10
-1.06672e-10
3.23523e-10
9.96723e-14
-1.59304e-18
-6.55526e-11
-2.7948e-20
0
0
2.02202e-11
)
;

boundaryField
{
    fixedWall
    {
        type            calculated;
        value           uniform 0;
    }
    outlet
    {
        type            calculated;
        value           uniform 0;
    }
    defaultFaces
    {
        type            empty;
    }
}


// ************************************************************************* //
