/*--------------------------------*- C++ -*----------------------------------*\
| =========                 |                                                 |
| \\      /  F ield         | OpenFOAM: The Open Source CFD Toolbox           |
|  \\    /   O peration     | Version:  2406                                  |
|   \\  /    A nd           | Website:  www.openfoam.com                      |
|    \\/     M anipulation  |                                                 |
\*---------------------------------------------------------------------------*/
FoamFile
{
    version     2.0;
    format      ascii;
    arch        "LSB;label=32;scalar=64";
    class       volVectorField;
    location    "14.8";
    object      U;
}
// * * * * * * * * * * * * * * * * * * * * * * * * * * * * * * * * * * * * * //

dimensions      [0 1 -1 0 0 0 0];

internalField   nonuniform List<vector> 
1000
(
(-5.28017e-07 0 0)
(-2.5656e-06 0 0)
(-6.67421e-06 0 0)
(-1.24124e-05 0 0)
(-1.9443e-05 0 0)
(-2.75565e-05 0 0)
(-3.66066e-05 0 0)
(-4.64697e-05 0 0)
(-5.70414e-05 0 0)
(-6.82301e-05 0 0)
(-7.99622e-05 0 0)
(-9.21703e-05 0 0)
(-0.000104799 0 0)
(-0.000117798 0 0)
(-0.000131124 0 0)
(-0.000144737 0 0)
(-0.000158604 0 0)
(-0.000172694 0 0)
(-0.000186978 0 0)
(-0.000201433 0 0)
(-0.000216035 0 0)
(-0.000230764 0 0)
(-0.0002456 0 0)
(-0.000260527 0 0)
(-0.000275529 0 0)
(-0.00029059 0 0)
(-0.000305698 0 0)
(-0.00032084 0 0)
(-0.000336004 0 0)
(-0.000351179 0 0)
(-0.000366355 0 0)
(-0.000381524 0 0)
(-0.000396676 0 0)
(-0.000411803 0 0)
(-0.000426896 0 0)
(-0.00044195 0 0)
(-0.000456956 0 0)
(-0.000471909 0 0)
(-0.000486803 0 0)
(-0.000501631 0 0)
(-0.000516389 0 0)
(-0.000531071 0 0)
(-0.000545673 0 0)
(-0.00056019 0 0)
(-0.000574618 0 0)
(-0.000588953 0 0)
(-0.000603192 0 0)
(-0.00061733 0 0)
(-0.000631364 0 0)
(-0.000645291 0 0)
(-0.000659109 0 0)
(-0.000672813 0 0)
(-0.000686403 0 0)
(-0.000699874 0 0)
(-0.000713226 0 0)
(-0.000726455 0 0)
(-0.00073956 0 0)
(-0.000752538 0 0)
(-0.000765388 0 0)
(-0.000778109 0 0)
(-0.000790699 0 0)
(-0.000803156 0 0)
(-0.000815478 0 0)
(-0.000827666 0 0)
(-0.000839717 0 0)
(-0.000851632 0 0)
(-0.000863408 0 0)
(-0.000875045 0 0)
(-0.000886544 0 0)
(-0.000897901 0 0)
(-0.000909118 0 0)
(-0.000920194 0 0)
(-0.000931128 0 0)
(-0.00094192 0 0)
(-0.000952571 0 0)
(-0.000963078 0 0)
(-0.000973444 0 0)
(-0.000983666 0 0)
(-0.000993748 0 0)
(-0.00100369 0 0)
(-0.00101348 0 0)
(-0.00102314 0 0)
(-0.00103265 0 0)
(-0.00104202 0 0)
(-0.00105125 0 0)
(-0.00106035 0 0)
(-0.0010693 0 0)
(-0.00107811 0 0)
(-0.00108678 0 0)
(-0.00109532 0 0)
(-0.00110372 0 0)
(-0.00111198 0 0)
(-0.00112011 0 0)
(-0.0011281 0 0)
(-0.00113596 0 0)
(-0.00114368 0 0)
(-0.00115127 0 0)
(-0.00115873 0 0)
(-0.00116606 0 0)
(-0.00117326 0 0)
(-0.00118033 0 0)
(-0.00118728 0 0)
(-0.0011941 0 0)
(-0.00120079 0 0)
(-0.00120736 0 0)
(-0.00121381 0 0)
(-0.00122013 0 0)
(-0.00122634 0 0)
(-0.00123242 0 0)
(-0.00123839 0 0)
(-0.00124424 0 0)
(-0.00124998 0 0)
(-0.0012556 0 0)
(-0.00126111 0 0)
(-0.00126651 0 0)
(-0.00127179 0 0)
(-0.00127697 0 0)
(-0.00128204 0 0)
(-0.00128701 0 0)
(-0.00129187 0 0)
(-0.00129663 0 0)
(-0.00130128 0 0)
(-0.00130584 0 0)
(-0.00131029 0 0)
(-0.00131465 0 0)
(-0.00131891 0 0)
(-0.00132308 0 0)
(-0.00132715 0 0)
(-0.00133113 0 0)
(-0.00133502 0 0)
(-0.00133882 0 0)
(-0.00134253 0 0)
(-0.00134616 0 0)
(-0.0013497 0 0)
(-0.00135316 0 0)
(-0.00135653 0 0)
(-0.00135983 0 0)
(-0.00136304 0 0)
(-0.00136618 0 0)
(-0.00136924 0 0)
(-0.00137222 0 0)
(-0.00137513 0 0)
(-0.00137797 0 0)
(-0.00138073 0 0)
(-0.00138343 0 0)
(-0.00138605 0 0)
(-0.00138861 0 0)
(-0.00139111 0 0)
(-0.00139353 0 0)
(-0.0013959 0 0)
(-0.0013982 0 0)
(-0.00140044 0 0)
(-0.00140262 0 0)
(-0.00140474 0 0)
(-0.00140681 0 0)
(-0.00140881 0 0)
(-0.00141077 0 0)
(-0.00141267 0 0)
(-0.00141451 0 0)
(-0.00141631 0 0)
(-0.00141805 0 0)
(-0.00141975 0 0)
(-0.00142139 0 0)
(-0.00142299 0 0)
(-0.00142455 0 0)
(-0.00142605 0 0)
(-0.00142752 0 0)
(-0.00142894 0 0)
(-0.00143032 0 0)
(-0.00143166 0 0)
(-0.00143296 0 0)
(-0.00143422 0 0)
(-0.00143544 0 0)
(-0.00143663 0 0)
(-0.00143777 0 0)
(-0.00143889 0 0)
(-0.00143996 0 0)
(-0.00144101 0 0)
(-0.00144202 0 0)
(-0.001443 0 0)
(-0.00144395 0 0)
(-0.00144487 0 0)
(-0.00144576 0 0)
(-0.00144662 0 0)
(-0.00144745 0 0)
(-0.00144825 0 0)
(-0.00144903 0 0)
(-0.00144978 0 0)
(-0.00145051 0 0)
(-0.00145121 0 0)
(-0.00145188 0 0)
(-0.00145254 0 0)
(-0.00145318 0 0)
(-0.0014538 0 0)
(-0.0014544 0 0)
(-0.00145497 0 0)
(-0.00145553 0 0)
(-0.00145606 0 0)
(-0.00145658 0 0)
(-0.00145708 0 0)
(-0.00145756 0 0)
(-0.00145803 0 0)
(-0.00145848 0 0)
(-0.00145891 0 0)
(-0.00145933 0 0)
(-0.00145973 0 0)
(-0.00146011 0 0)
(-0.00146049 0 0)
(-0.00146085 0 0)
(-0.00146119 0 0)
(-0.00146152 0 0)
(-0.00146184 0 0)
(-0.00146215 0 0)
(-0.00146245 0 0)
(-0.00146274 0 0)
(-0.00146301 0 0)
(-0.00146328 0 0)
(-0.00146353 0 0)
(-0.00146377 0 0)
(-0.00146401 0 0)
(-0.00146424 0 0)
(-0.00146446 0 0)
(-0.00146466 0 0)
(-0.00146486 0 0)
(-0.00146506 0 0)
(-0.00146524 0 0)
(-0.00146542 0 0)
(-0.00146559 0 0)
(-0.00146575 0 0)
(-0.00146591 0 0)
(-0.00146606 0 0)
(-0.00146621 0 0)
(-0.00146635 0 0)
(-0.00146648 0 0)
(-0.00146661 0 0)
(-0.00146673 0 0)
(-0.00146685 0 0)
(-0.00146696 0 0)
(-0.00146707 0 0)
(-0.00146717 0 0)
(-0.00146727 0 0)
(-0.00146736 0 0)
(-0.00146745 0 0)
(-0.00146754 0 0)
(-0.00146762 0 0)
(-0.0014677 0 0)
(-0.00146778 0 0)
(-0.00146785 0 0)
(-0.00146792 0 0)
(-0.00146798 0 0)
(-0.00146805 0 0)
(-0.00146811 0 0)
(-0.00146816 0 0)
(-0.00146822 0 0)
(-0.00146827 0 0)
(-0.00146832 0 0)
(-0.00146837 0 0)
(-0.00146841 0 0)
(-0.00146846 0 0)
(-0.0014685 0 0)
(-0.00146854 0 0)
(-0.00146857 0 0)
(-0.00146861 0 0)
(-0.00146864 0 0)
(-0.00146868 0 0)
(-0.00146871 0 0)
(-0.00146873 0 0)
(-0.00146876 0 0)
(-0.00146879 0 0)
(-0.00146881 0 0)
(-0.00146884 0 0)
(-0.00146886 0 0)
(-0.00146888 0 0)
(-0.0014689 0 0)
(-0.00146892 0 0)
(-0.00146894 0 0)
(-0.00146896 0 0)
(-0.00146897 0 0)
(-0.00146899 0 0)
(-0.001469 0 0)
(-0.00146902 0 0)
(-0.00146903 0 0)
(-0.00146904 0 0)
(-0.00146905 0 0)
(-0.00146906 0 0)
(-0.00146908 0 0)
(-0.00146908 0 0)
(-0.00146909 0 0)
(-0.0014691 0 0)
(-0.00146911 0 0)
(-0.00146912 0 0)
(-0.00146913 0 0)
(-0.00146913 0 0)
(-0.00146914 0 0)
(-0.00146914 0 0)
(-0.00146915 0 0)
(-0.00146915 0 0)
(-0.00146916 0 0)
(-0.00146916 0 0)
(-0.00146917 0 0)
(-0.00146917 0 0)
(-0.00146918 0 0)
(-0.00146918 0 0)
(-0.00146918 0 0)
(-0.00146919 0 0)
(-0.00146919 0 0)
(-0.00146919 0 0)
(-0.00146919 0 0)
(-0.0014692 0 0)
(-0.0014692 0 0)
(-0.0014692 0 0)
(-0.0014692 0 0)
(-0.0014692 0 0)
(-0.0014692 0 0)
(-0.00146921 0 0)
(-0.00146921 0 0)
(-0.00146921 0 0)
(-0.00146921 0 0)
(-0.00146921 0 0)
(-0.00146921 0 0)
(-0.00146921 0 0)
(-0.00146921 0 0)
(-0.00146921 0 0)
(-0.00146921 0 0)
(-0.00146921 0 0)
(-0.00146921 0 0)
(-0.00146921 0 0)
(-0.00146921 0 0)
(-0.00146921 0 0)
(-0.00146921 0 0)
(-0.00146921 0 0)
(-0.00146921 0 0)
(-0.00146921 0 0)
(-0.00146921 0 0)
(-0.00146921 0 0)
(-0.00146922 0 0)
(-0.00146921 0 0)
(-0.00146922 0 0)
(-0.00146921 0 0)
(-0.00146921 0 0)
(-0.00146921 0 0)
(-0.00146921 0 0)
(-0.00146921 0 0)
(-0.00146921 0 0)
(-0.00146921 0 0)
(-0.00146921 0 0)
(-0.00146921 0 0)
(-0.00146921 0 0)
(-0.00146921 0 0)
(-0.00146921 0 0)
(-0.00146921 0 0)
(-0.00146921 0 0)
(-0.00146921 0 0)
(-0.00146922 0 0)
(-0.00146921 0 0)
(-0.00146921 0 0)
(-0.00146921 0 0)
(-0.00146921 0 0)
(-0.00146921 0 0)
(-0.00146921 0 0)
(-0.00146921 0 0)
(-0.00146921 0 0)
(-0.00146921 0 0)
(-0.00146921 0 0)
(-0.00146921 0 0)
(-0.00146921 0 0)
(-0.00146921 0 0)
(-0.00146921 0 0)
(-0.00146921 0 0)
(-0.00146921 0 0)
(-0.00146921 0 0)
(-0.00146921 0 0)
(-0.00146921 0 0)
(-0.00146921 0 0)
(-0.00146921 0 0)
(-0.00146921 0 0)
(-0.00146921 0 0)
(-0.00146921 0 0)
(-0.00146921 0 0)
(-0.00146921 0 0)
(-0.00146921 0 0)
(-0.00146921 0 0)
(-0.00146922 0 0)
(-0.00146921 0 0)
(-0.00146922 0 0)
(-0.00146921 0 0)
(-0.00146922 0 0)
(-0.00146922 0 0)
(-0.00146922 0 0)
(-0.00146922 0 0)
(-0.00146922 0 0)
(-0.00146922 0 0)
(-0.00146922 0 0)
(-0.00146922 0 0)
(-0.00146922 0 0)
(-0.00146922 0 0)
(-0.00146922 0 0)
(-0.00146922 0 0)
(-0.00146922 0 0)
(-0.00146922 0 0)
(-0.00146922 0 0)
(-0.00146922 0 0)
(-0.00146922 0 0)
(-0.00146922 0 0)
(-0.00146922 0 0)
(-0.00146922 0 0)
(-0.00146922 0 0)
(-0.00146922 0 0)
(-0.00146922 0 0)
(-0.00146922 0 0)
(-0.00146922 0 0)
(-0.00146922 0 0)
(-0.00146922 0 0)
(-0.00146922 0 0)
(-0.00146922 0 0)
(-0.00146922 0 0)
(-0.00146922 0 0)
(-0.00146922 0 0)
(-0.00146923 0 0)
(-0.00146922 0 0)
(-0.00146923 0 0)
(-0.00146923 0 0)
(-0.00146923 0 0)
(-0.00146923 0 0)
(-0.00146923 0 0)
(-0.00146923 0 0)
(-0.00146923 0 0)
(-0.00146923 0 0)
(-0.00146923 0 0)
(-0.00146923 0 0)
(-0.00146923 0 0)
(-0.00146923 0 0)
(-0.00146923 0 0)
(-0.00146923 0 0)
(-0.00146923 0 0)
(-0.00146923 0 0)
(-0.00146923 0 0)
(-0.00146923 0 0)
(-0.00146923 0 0)
(-0.00146923 0 0)
(-0.00146923 0 0)
(-0.00146923 0 0)
(-0.00146923 0 0)
(-0.00146923 0 0)
(-0.00146923 0 0)
(-0.00146923 0 0)
(-0.00146923 0 0)
(-0.00146923 0 0)
(-0.00146923 0 0)
(-0.00146923 0 0)
(-0.00146923 0 0)
(-0.00146923 0 0)
(-0.00146923 0 0)
(-0.00146923 0 0)
(-0.00146923 0 0)
(-0.00146923 0 0)
(-0.00146923 0 0)
(-0.00146923 0 0)
(-0.00146923 0 0)
(-0.00146923 0 0)
(-0.00146923 0 0)
(-0.00146923 0 0)
(-0.00146923 0 0)
(-0.00146923 0 0)
(-0.00146923 0 0)
(-0.00146923 0 0)
(-0.00146923 0 0)
(-0.00146923 0 0)
(-0.00146923 0 0)
(-0.00146923 0 0)
(-0.00146923 0 0)
(-0.00146923 0 0)
(-0.00146923 0 0)
(-0.00146923 0 0)
(-0.00146923 0 0)
(-0.00146923 0 0)
(-0.00146923 0 0)
(-0.00146923 0 0)
(-0.00146923 0 0)
(-0.00146924 0 0)
(-0.00146923 0 0)
(-0.00146923 0 0)
(-0.00146924 0 0)
(-0.00146923 0 0)
(-0.00146924 0 0)
(-0.00146923 0 0)
(-0.00146923 0 0)
(-0.00146923 0 0)
(-0.00146923 0 0)
(-0.00146924 0 0)
(-0.00146924 0 0)
(-0.00146923 0 0)
(-0.00146924 0 0)
(-0.00146923 0 0)
(-0.00146924 0 0)
(-0.00146924 0 0)
(-0.00146924 0 0)
(-0.00146923 0 0)
(-0.00146924 0 0)
(-0.00146924 0 0)
(-0.00146923 0 0)
(-0.00146924 0 0)
(-0.00146923 0 0)
(-0.00146924 0 0)
(-0.00146923 0 0)
(-0.00146924 0 0)
(-0.00146923 0 0)
(-0.00146924 0 0)
(-0.00146924 0 0)
(-0.00146924 0 0)
(-0.00146924 0 0)
(-0.00146923 0 0)
(-0.00146924 0 0)
(-0.00146923 0 0)
(-0.00146924 0 0)
(-0.00146923 0 0)
(-0.00146924 0 0)
(-0.00146923 0 0)
(-0.00146924 0 0)
(-0.00146924 0 0)
(-0.00146923 0 0)
(-0.00146924 0 0)
(-0.00146923 0 0)
(-0.00146924 0 0)
(-0.00146924 0 0)
(-0.00146924 0 0)
(-0.00146924 0 0)
(-0.00146924 0 0)
(-0.00146923 0 0)
(-0.00146924 0 0)
(-0.00146924 0 0)
(-0.00146923 0 0)
(-0.00146924 0 0)
(-0.00146923 0 0)
(-0.00146924 0 0)
(-0.00146923 0 0)
(-0.00146924 0 0)
(-0.00146924 0 0)
(-0.00146923 0 0)
(-0.00146924 0 0)
(-0.00146923 0 0)
(-0.00146924 0 0)
(-0.00146923 0 0)
(-0.00146924 0 0)
(-0.00146923 0 0)
(-0.00146924 0 0)
(-0.00146923 0 0)
(-0.00146923 0 0)
(-0.00146923 0 0)
(-0.00146923 0 0)
(-0.00146924 0 0)
(-0.00146923 0 0)
(-0.00146923 0 0)
(-0.00146923 0 0)
(-0.00146923 0 0)
(-0.00146923 0 0)
(-0.00146923 0 0)
(-0.00146923 0 0)
(-0.00146923 0 0)
(-0.00146923 0 0)
(-0.00146923 0 0)
(-0.00146923 0 0)
(-0.00146923 0 0)
(-0.00146923 0 0)
(-0.00146923 0 0)
(-0.00146923 0 0)
(-0.00146923 0 0)
(-0.00146923 0 0)
(-0.00146923 0 0)
(-0.00146923 0 0)
(-0.00146923 0 0)
(-0.00146923 0 0)
(-0.00146923 0 0)
(-0.00146923 0 0)
(-0.00146923 0 0)
(-0.00146923 0 0)
(-0.00146923 0 0)
(-0.00146923 0 0)
(-0.00146923 0 0)
(-0.00146923 0 0)
(-0.00146923 0 0)
(-0.00146923 0 0)
(-0.00146923 0 0)
(-0.00146923 0 0)
(-0.00146923 0 0)
(-0.00146923 0 0)
(-0.00146923 0 0)
(-0.00146923 0 0)
(-0.00146923 0 0)
(-0.00146923 0 0)
(-0.00146923 0 0)
(-0.00146923 0 0)
(-0.00146923 0 0)
(-0.00146923 0 0)
(-0.00146923 0 0)
(-0.00146923 0 0)
(-0.00146923 0 0)
(-0.00146923 0 0)
(-0.00146923 0 0)
(-0.00146923 0 0)
(-0.00146923 0 0)
(-0.00146923 0 0)
(-0.00146923 0 0)
(-0.00146923 0 0)
(-0.00146923 0 0)
(-0.00146923 0 0)
(-0.00146923 0 0)
(-0.00146923 0 0)
(-0.00146923 0 0)
(-0.00146923 0 0)
(-0.00146923 0 0)
(-0.00146923 0 0)
(-0.00146923 0 0)
(-0.00146923 0 0)
(-0.00146923 0 0)
(-0.00146923 0 0)
(-0.00146923 0 0)
(-0.00146923 0 0)
(-0.00146923 0 0)
(-0.00146923 0 0)
(-0.00146923 0 0)
(-0.00146923 0 0)
(-0.00146923 0 0)
(-0.00146923 0 0)
(-0.00146923 0 0)
(-0.00146923 0 0)
(-0.00146923 0 0)
(-0.00146923 0 0)
(-0.00146923 0 0)
(-0.00146923 0 0)
(-0.00146923 0 0)
(-0.00146923 0 0)
(-0.00146923 0 0)
(-0.00146923 0 0)
(-0.00146923 0 0)
(-0.00146923 0 0)
(-0.00146923 0 0)
(-0.00146923 0 0)
(-0.00146923 0 0)
(-0.00146923 0 0)
(-0.00146923 0 0)
(-0.00146923 0 0)
(-0.00146923 0 0)
(-0.00146923 0 0)
(-0.00146923 0 0)
(-0.00146923 0 0)
(-0.00146923 0 0)
(-0.00146923 0 0)
(-0.00146923 0 0)
(-0.00146923 0 0)
(-0.00146923 0 0)
(-0.00146923 0 0)
(-0.00146923 0 0)
(-0.00146923 0 0)
(-0.00146923 0 0)
(-0.00146923 0 0)
(-0.00146923 0 0)
(-0.00146923 0 0)
(-0.00146923 0 0)
(-0.00146923 0 0)
(-0.00146923 0 0)
(-0.00146923 0 0)
(-0.00146923 0 0)
(-0.00146923 0 0)
(-0.00146923 0 0)
(-0.00146923 0 0)
(-0.00146923 0 0)
(-0.00146923 0 0)
(-0.00146923 0 0)
(-0.00146923 0 0)
(-0.00146923 0 0)
(-0.00146923 0 0)
(-0.00146923 0 0)
(-0.00146923 0 0)
(-0.00146923 0 0)
(-0.00146923 0 0)
(-0.00146923 0 0)
(-0.00146923 0 0)
(-0.00146923 0 0)
(-0.00146923 0 0)
(-0.00146923 0 0)
(-0.00146923 0 0)
(-0.00146923 0 0)
(-0.00146923 0 0)
(-0.00146923 0 0)
(-0.00146923 0 0)
(-0.00146923 0 0)
(-0.00146924 0 0)
(-0.00146924 0 0)
(-0.00146924 0 0)
(-0.00146924 0 0)
(-0.00146924 0 0)
(-0.00146924 0 0)
(-0.00146924 0 0)
(-0.00146924 0 0)
(-0.00146924 0 0)
(-0.00146925 0 0)
(-0.00146925 0 0)
(-0.00146925 0 0)
(-0.00146925 0 0)
(-0.00146925 0 0)
(-0.00146925 0 0)
(-0.00146926 0 0)
(-0.00146926 0 0)
(-0.00146926 0 0)
(-0.00146926 0 0)
(-0.00146927 0 0)
(-0.00146927 0 0)
(-0.00146927 0 0)
(-0.00146928 0 0)
(-0.00146928 0 0)
(-0.00146929 0 0)
(-0.00146929 0 0)
(-0.0014693 0 0)
(-0.0014693 0 0)
(-0.00146931 0 0)
(-0.00146931 0 0)
(-0.00146932 0 0)
(-0.00146933 0 0)
(-0.00146933 0 0)
(-0.00146934 0 0)
(-0.00146935 0 0)
(-0.00146936 0 0)
(-0.00146937 0 0)
(-0.00146938 0 0)
(-0.00146939 0 0)
(-0.0014694 0 0)
(-0.00146941 0 0)
(-0.00146943 0 0)
(-0.00146944 0 0)
(-0.00146946 0 0)
(-0.00146947 0 0)
(-0.00146949 0 0)
(-0.00146951 0 0)
(-0.00146953 0 0)
(-0.00146955 0 0)
(-0.00146957 0 0)
(-0.00146959 0 0)
(-0.00146961 0 0)
(-0.00146964 0 0)
(-0.00146967 0 0)
(-0.0014697 0 0)
(-0.00146973 0 0)
(-0.00146976 0 0)
(-0.00146979 0 0)
(-0.00146983 0 0)
(-0.00146987 0 0)
(-0.00146991 0 0)
(-0.00146995 0 0)
(-0.00147 0 0)
(-0.00147005 0 0)
(-0.0014701 0 0)
(-0.00147015 0 0)
(-0.00147021 0 0)
(-0.00147027 0 0)
(-0.00147033 0 0)
(-0.0014704 0 0)
(-0.00147047 0 0)
(-0.00147055 0 0)
(-0.00147063 0 0)
(-0.00147072 0 0)
(-0.00147081 0 0)
(-0.0014709 0 0)
(-0.001471 0 0)
(-0.00147111 0 0)
(-0.00147122 0 0)
(-0.00147133 0 0)
(-0.00147146 0 0)
(-0.00147159 0 0)
(-0.00147172 0 0)
(-0.00147187 0 0)
(-0.00147202 0 0)
(-0.00147218 0 0)
(-0.00147235 0 0)
(-0.00147252 0 0)
(-0.00147271 0 0)
(-0.00147291 0 0)
(-0.00147311 0 0)
(-0.00147333 0 0)
(-0.00147356 0 0)
(-0.0014738 0 0)
(-0.00147405 0 0)
(-0.00147431 0 0)
(-0.00147459 0 0)
(-0.00147488 0 0)
(-0.00147519 0 0)
(-0.0014755 0 0)
(-0.00147584 0 0)
(-0.00147619 0 0)
(-0.00147656 0 0)
(-0.00147695 0 0)
(-0.00147735 0 0)
(-0.00147778 0 0)
(-0.00147822 0 0)
(-0.00147868 0 0)
(-0.00147917 0 0)
(-0.00147968 0 0)
(-0.00148021 0 0)
(-0.00148076 0 0)
(-0.00148134 0 0)
(-0.00148195 0 0)
(-0.00148258 0 0)
(-0.00148325 0 0)
(-0.00148394 0 0)
(-0.00148466 0 0)
(-0.00148541 0 0)
(-0.0014862 0 0)
(-0.00148701 0 0)
(-0.00148787 0 0)
(-0.00148876 0 0)
(-0.00148968 0 0)
(-0.00149065 0 0)
(-0.00149165 0 0)
(-0.0014927 0 0)
(-0.00149378 0 0)
(-0.00149492 0 0)
(-0.0014961 0 0)
(-0.00149732 0 0)
(-0.00149859 0 0)
(-0.00149992 0 0)
(-0.00150129 0 0)
(-0.00150272 0 0)
(-0.0015042 0 0)
(-0.00150574 0 0)
(-0.00150734 0 0)
(-0.00150899 0 0)
(-0.00151071 0 0)
(-0.00151249 0 0)
(-0.00151434 0 0)
(-0.00151625 0 0)
(-0.00151823 0 0)
(-0.00152028 0 0)
(-0.00152241 0 0)
(-0.00152461 0 0)
(-0.00152688 0 0)
(-0.00152924 0 0)
(-0.00153167 0 0)
(-0.00153418 0 0)
(-0.00153678 0 0)
(-0.00153947 0 0)
(-0.00154224 0 0)
(-0.00154511 0 0)
(-0.00154806 0 0)
(-0.00155112 0 0)
(-0.00155426 0 0)
(-0.00155751 0 0)
(-0.00156085 0 0)
(-0.0015643 0 0)
(-0.00156786 0 0)
(-0.00157152 0 0)
(-0.00157529 0 0)
(-0.00157917 0 0)
(-0.00158316 0 0)
(-0.00158727 0 0)
(-0.00159149 0 0)
(-0.00159583 0 0)
(-0.0016003 0 0)
(-0.00160489 0 0)
(-0.0016096 0 0)
(-0.00161444 0 0)
(-0.00161941 0 0)
(-0.0016245 0 0)
(-0.00162973 0 0)
(-0.0016351 0 0)
(-0.0016406 0 0)
(-0.00164624 0 0)
(-0.00165201 0 0)
(-0.00165793 0 0)
(-0.00166399 0 0)
(-0.00167019 0 0)
(-0.00167654 0 0)
(-0.00168303 0 0)
(-0.00168967 0 0)
(-0.00169646 0 0)
(-0.0017034 0 0)
(-0.00171049 0 0)
(-0.00171773 0 0)
(-0.00172512 0 0)
(-0.00173266 0 0)
(-0.00174036 0 0)
(-0.00174821 0 0)
(-0.00175621 0 0)
(-0.00176437 0 0)
(-0.00177269 0 0)
(-0.00178115 0 0)
(-0.00178978 0 0)
(-0.00179855 0 0)
(-0.00180748 0 0)
(-0.00181656 0 0)
(-0.00182579 0 0)
(-0.00183518 0 0)
(-0.00184471 0 0)
(-0.00185439 0 0)
(-0.00186423 0 0)
(-0.0018742 0 0)
(-0.00188432 0 0)
(-0.00189458 0 0)
(-0.00190498 0 0)
(-0.00191552 0 0)
(-0.0019262 0 0)
(-0.001937 0 0)
(-0.00194794 0 0)
(-0.001959 0 0)
(-0.00197018 0 0)
(-0.00198148 0 0)
(-0.0019929 0 0)
(-0.00200443 0 0)
(-0.00201606 0 0)
(-0.00202779 0 0)
(-0.00203962 0 0)
(-0.00205155 0 0)
(-0.00206355 0 0)
(-0.00207564 0 0)
(-0.00208781 0 0)
(-0.00210004 0 0)
(-0.00211233 0 0)
(-0.00212467 0 0)
(-0.00213707 0 0)
(-0.0021495 0 0)
(-0.00216196 0 0)
(-0.00217445 0 0)
(-0.00218695 0 0)
(-0.00219946 0 0)
(-0.00221196 0 0)
(-0.00222445 0 0)
(-0.00223692 0 0)
(-0.00224936 0 0)
(-0.00226175 0 0)
(-0.00227409 0 0)
(-0.00228636 0 0)
(-0.00229855 0 0)
(-0.00231065 0 0)
(-0.00232265 0 0)
(-0.00233453 0 0)
(-0.00234628 0 0)
(-0.00235788 0 0)
(-0.00236933 0 0)
(-0.0023806 0 0)
(-0.00239168 0 0)
(-0.00240256 0 0)
(-0.00241321 0 0)
(-0.00242362 0 0)
(-0.00243377 0 0)
(-0.00244364 0 0)
(-0.00245322 0 0)
(-0.00246247 0 0)
(-0.00247139 0 0)
(-0.00247994 0 0)
(-0.00248811 0 0)
(-0.00249588 0 0)
(-0.00250321 0 0)
(-0.00251009 0 0)
(-0.0025165 0 0)
(-0.00252244 0 0)
(-0.00252786 0 0)
(-0.00253273 0 0)
(-0.00253697 0 0)
(-0.0025406 0 0)
(-0.00254361 0 0)
(-0.00254598 0 0)
(-0.00254765 0 0)
(-0.00254856 0 0)
(-0.00254869 0 0)
(-0.00254799 0 0)
(-0.00254641 0 0)
(-0.00254393 0 0)
(-0.00254049 0 0)
(-0.00253607 0 0)
(-0.0025306 0 0)
(-0.00252404 0 0)
(-0.00251636 0 0)
(-0.00250748 0 0)
(-0.00249738 0 0)
(-0.00248598 0 0)
(-0.00247324 0 0)
(-0.0024591 0 0)
(-0.0024435 0 0)
(-0.00242638 0 0)
(-0.00240768 0 0)
(-0.00238735 0 0)
(-0.00236532 0 0)
(-0.00234153 0 0)
(-0.00231591 0 0)
(-0.00228843 0 0)
(-0.002259 0 0)
(-0.00222759 0 0)
(-0.00219414 0 0)
(-0.0021586 0 0)
(-0.00212094 0 0)
(-0.00208113 0 0)
(-0.00203913 0 0)
(-0.00199493 0 0)
(-0.00194853 0 0)
(-0.00189993 0 0)
(-0.00184923 0 0)
(-0.00179666 0 0)
(-0.00174227 0 0)
(-0.00168413 0 0)
(-0.00161793 0 0)
(-0.00155334 0 0)
)
;

boundaryField
{
    fixedWall
    {
        type            fixedValue;
        value           uniform (0 0 0);
    }
    outlet
    {
        type            pressureInletOutletVelocity;
        value           uniform (-0.00155334 0 0);
    }
    defaultFaces
    {
        type            empty;
    }
}


// ************************************************************************* //
