/*--------------------------------*- C++ -*----------------------------------*\
| =========                 |                                                 |
| \\      /  F ield         | OpenFOAM: The Open Source CFD Toolbox           |
|  \\    /   O peration     | Version:  2406                                  |
|   \\  /    A nd           | Website:  www.openfoam.com                      |
|    \\/     M anipulation  |                                                 |
\*---------------------------------------------------------------------------*/
FoamFile
{
    version     2.0;
    format      ascii;
    arch        "LSB;label=32;scalar=64";
    class       volScalarField;
    location    "14.7";
    object      Qdot;
}
// * * * * * * * * * * * * * * * * * * * * * * * * * * * * * * * * * * * * * //

dimensions      [1 -1 -3 0 0 0 0];

internalField   nonuniform List<scalar> 
1000
(
4.98402e-14
-4.9851e-14
-1.0296e-16
-7.27766e-16
1.70674e-09
1.14133e-08
2.5259e-08
8.99342e-08
2.3973e-07
5.78036e-07
1.30016e-06
2.71381e-06
5.30323e-06
9.78214e-06
1.71634e-05
2.88063e-05
4.64685e-05
7.23622e-05
0.00010916
0.000160019
0.000228564
0.000318853
0.000435313
0.000582697
0.000765966
0.00099019
0.00126046
0.00158172
0.00195871
0.00239579
0.00289688
0.00346532
0.00410377
0.00481422
0.00559782
0.0064549
0.00738498
0.00838667
0.00945776
0.0105953
0.0117953
0.0130535
0.0143647
0.0157231
0.0171226
0.0185565
0.0200181
0.0215002
0.0229956
0.0244972
0.0259977
0.0274901
0.0289678
0.0304241
0.0318528
0.0332483
0.0346052
0.0359186
0.0371841
0.0383978
0.0395565
0.0406572
0.0416976
0.0426759
0.0435907
0.0444412
0.045227
0.045948
0.0466046
0.0471976
0.0477279
0.048197
0.0486065
0.0489581
0.0492539
0.0494961
0.049687
0.049829
0.0499247
0.0499766
0.0499873
0.0499595
0.0498956
0.0497984
0.0496703
0.0495139
0.0493316
0.0491257
0.0488986
0.0486524
0.0483892
0.0481111
0.04782
0.0475177
0.0472059
0.0468862
0.0465601
0.0462292
0.0458946
0.0455576
0.0452194
0.044881
0.0445434
0.0442074
0.0438739
0.0435436
0.0432171
0.0428951
0.0425781
0.0422665
0.0419608
0.0416613
0.0413683
0.0410822
0.0408031
0.0405312
0.0402667
0.0400096
0.0397602
0.0395183
0.0392842
0.0390577
0.0388388
0.0386276
0.038424
0.0382278
0.0380391
0.0378577
0.0376836
0.0375165
0.0373565
0.0372033
0.0370568
0.0369169
0.0367834
0.0366562
0.0365352
0.0364201
0.0363108
0.0362072
0.0361091
0.0360164
0.0359288
0.0358463
0.0357686
0.0356956
0.0356273
0.0355633
0.0355036
0.035448
0.0353964
0.0353487
0.0353046
0.0352641
0.035227
0.0351933
0.0351627
0.0351352
0.0351106
0.0350888
0.0350698
0.0350533
0.0350393
0.0350278
0.0350185
0.0350114
0.0350064
0.0350034
0.0350023
0.0350031
0.0350057
0.0350099
0.0350157
0.0350231
0.0350319
0.0350421
0.0350536
0.0350664
0.0350804
0.0350956
0.0351119
0.0351292
0.0351474
0.0351667
0.0351868
0.0352078
0.0352295
0.0352521
0.0352753
0.0352993
0.0353239
0.0353491
0.035375
0.0354014
0.0354283
0.0354556
0.0354835
0.0355118
0.0355406
0.0355697
0.0355993
0.0356291
0.0356594
0.03569
0.0357209
0.035752
0.0357833
0.035815
0.035847
0.0358791
0.0359115
0.0359441
0.0359769
0.0360099
0.036043
0.0360763
0.0361098
0.0361434
0.036177
0.0362109
0.0362449
0.036279
0.0363132
0.0363476
0.036382
0.0364165
0.0364511
0.0364857
0.0365204
0.0365553
0.0365902
0.0366252
0.0366602
0.0366953
0.0367304
0.0367655
0.0368008
0.0368361
0.0368714
0.0369069
0.0369422
0.0369777
0.0370133
0.0370489
0.0370845
0.0371202
0.0371559
0.0371917
0.0372275
0.0372634
0.0372992
0.0373351
0.0373711
0.0374071
0.037443
0.0374791
0.0375152
0.0375514
0.0375876
0.0376238
0.03766
0.0376963
0.0377326
0.0377689
0.0378052
0.0378416
0.0378781
0.0379146
0.0379511
0.0379876
0.0380242
0.0380608
0.0380975
0.0381341
0.0381709
0.0382076
0.0382444
0.0382813
0.0383181
0.0383551
0.038392
0.038429
0.038466
0.0385031
0.0385402
0.0385773
0.0386145
0.0386517
0.038689
0.0387263
0.0387636
0.038801
0.0388385
0.0388759
0.0389134
0.038951
0.0389886
0.0390263
0.039064
0.0391017
0.0391395
0.0391773
0.0392152
0.0392531
0.039291
0.0393291
0.0393671
0.0394052
0.0394433
0.0394815
0.0395198
0.0395581
0.0395964
0.0396348
0.0396733
0.0397118
0.0397503
0.0397889
0.0398274
0.0398661
0.0399049
0.0399437
0.0399825
0.0400214
0.0400604
0.0400994
0.0401384
0.0401775
0.0402167
0.0402559
0.0402951
0.0403344
0.0403738
0.0404132
0.0404526
0.0404922
0.0405317
0.0405713
0.040611
0.0406508
0.0406906
0.0407304
0.0407703
0.0408103
0.0408503
0.0408904
0.0409306
0.0409708
0.041011
0.0410514
0.0410916
0.041132
0.0411726
0.0412131
0.0412537
0.0412944
0.0413352
0.0413758
0.0414167
0.0414576
0.0414986
0.0415396
0.0415807
0.0416218
0.041663
0.0417043
0.0417456
0.041787
0.0418285
0.04187
0.0419116
0.0419533
0.041995
0.0420368
0.0420784
0.0421204
0.0421624
0.0422044
0.0422463
0.0422885
0.0423306
0.0423729
0.0424152
0.0424576
0.0425001
0.0425426
0.0425852
0.0426278
0.0426705
0.0427133
0.0427562
0.0427991
0.042842
0.0428851
0.0429282
0.0429714
0.0430146
0.0430579
0.0431013
0.0431447
0.0431882
0.0432318
0.0432754
0.0433191
0.0433629
0.0434067
0.0434506
0.0434946
0.0435386
0.0435827
0.0436269
0.0436711
0.0437154
0.0437598
0.0438042
0.0438487
0.0438933
0.0439379
0.0439826
0.0440274
0.0440722
0.0441172
0.0441621
0.0442072
0.0442523
0.0442975
0.0443428
0.0443881
0.0444335
0.044479
0.0445245
0.0445702
0.0446159
0.0446614
0.0447073
0.0447532
0.0447992
0.0448452
0.0448913
0.0449375
0.0449838
0.0450301
0.0450765
0.0451229
0.0451695
0.0452161
0.0452628
0.0453095
0.0453563
0.0454032
0.0454502
0.0454973
0.0455442
0.0455915
0.0456387
0.0456861
0.0457335
0.045781
0.0458285
0.0458761
0.0459238
0.0459716
0.0460195
0.0460674
0.0461154
0.0461635
0.0462116
0.0462599
0.0463082
0.0463566
0.0464049
0.0464534
0.0465021
0.0465508
0.0465995
0.0466484
0.0466973
0.0467463
0.0467954
0.0468445
0.0468938
0.0469431
0.0469924
0.0470419
0.0470914
0.047141
0.0471907
0.0472405
0.0472903
0.0473403
0.0473902
0.0474403
0.0474905
0.0475407
0.0475911
0.0476415
0.047692
0.0477426
0.0477932
0.0478438
0.0478946
0.0479455
0.0479965
0.0480476
0.0480987
0.0481499
0.0482012
0.0482526
0.048304
0.0483556
0.0484072
0.0484589
0.0485107
0.0485626
0.0486145
0.0486666
0.0487187
0.0487709
0.0488231
0.0488755
0.048928
0.0489805
0.0490331
0.0490858
0.0491386
0.0491915
0.0492445
0.0492976
0.0493507
0.0494038
0.0494571
0.0495105
0.049564
0.0496175
0.0496712
0.0497249
0.0497788
0.0498327
0.0498867
0.0499407
0.0499949
0.0500492
0.0501035
0.050158
0.0502125
0.0502671
0.0503218
0.0503766
0.0504314
0.0504864
0.0505415
0.0505966
0.0506519
0.0507072
0.0507626
0.0508182
0.0508736
0.0509293
0.0509851
0.051041
0.0510969
0.051153
0.0512091
0.0512654
0.0513217
0.0513781
0.0514347
0.0514913
0.051548
0.0516048
0.0516617
0.0517186
0.0517757
0.0518329
0.0518902
0.0519475
0.052005
0.0520625
0.0521202
0.0521779
0.0522358
0.0522937
0.0523518
0.0524099
0.0524681
0.0525264
0.0525849
0.0526434
0.052702
0.0527607
0.0528195
0.0528784
0.0529375
0.0529966
0.0530558
0.0531151
0.0531745
0.053234
0.0532936
0.0533533
0.0534131
0.053473
0.0535331
0.0535932
0.0536534
0.0537137
0.0537741
0.0538347
0.0538953
0.053956
0.0540168
0.0540778
0.0541388
0.0542
0.0542612
0.0543226
0.054384
0.0544456
0.0545072
0.054569
0.0546309
0.0546929
0.054755
0.0548171
0.0548795
0.0549419
0.0550044
0.055067
0.0551297
0.0551926
0.0552555
0.0553185
0.0553817
0.055445
0.0555084
0.0555718
0.0556354
0.0556991
0.055763
0.0558269
0.0558909
0.0559551
0.0560193
0.0560837
0.0561482
0.0562128
0.0562775
0.0563423
0.0564072
0.0564722
0.0565374
0.0566027
0.056668
0.0567335
0.0567992
0.0568649
0.0569307
0.0569967
0.0570628
0.057129
0.0571952
0.0572613
0.0573278
0.0573944
0.0574612
0.057528
0.057595
0.0576621
0.0577293
0.0577966
0.057864
0.0579316
0.0579993
0.0580671
0.058135
0.0582031
0.0582712
0.0583395
0.0584077
0.0584759
0.0585445
0.0586132
0.0586821
0.058751
0.0588201
0.0588893
0.0589586
0.059028
0.0590976
0.0591672
0.059237
0.0593069
0.059377
0.0594471
0.0595174
0.0595878
0.0596583
0.0597289
0.0597997
0.0598706
0.0599416
0.0600127
0.060084
0.0601554
0.0602269
0.0602985
0.0603703
0.0604421
0.0605141
0.0605863
0.0606585
0.0607309
0.0608034
0.060876
0.0609488
0.0610217
0.0610947
0.0611678
0.0612411
0.0613145
0.061388
0.0614616
0.0615354
0.0616093
0.0616833
0.0617574
0.0618317
0.0619061
0.0619807
0.0620553
0.0621301
0.062205
0.0622801
0.0623552
0.0624305
0.0625059
0.0625815
0.0626572
0.062733
0.0628089
0.062885
0.0629612
0.0630375
0.063114
0.0631906
0.0632673
0.0633441
0.0634211
0.0634982
0.0635755
0.0636528
0.0637304
0.063808
0.0638858
0.0639637
0.0640418
0.06412
0.0641984
0.0642769
0.0643555
0.0644343
0.0645133
0.0645924
0.0646717
0.0647511
0.0648307
0.0649105
0.0649905
0.0650707
0.065151
0.0652316
0.0653124
0.0653934
0.0654746
0.065556
0.0656378
0.0657198
0.065802
0.0658846
0.0659675
0.0660507
0.0661342
0.0662181
0.0663025
0.0663872
0.0664724
0.066558
0.0666441
0.0667308
0.066818
0.0669059
0.0669944
0.0670835
0.0671735
0.0672641
0.0673557
0.0674481
0.0675415
0.0676359
0.0677313
0.067828
0.0679258
0.068025
0.0681256
0.0682277
0.0683315
0.0684369
0.0685441
0.0686533
0.0687646
0.068878
0.0689938
0.0691121
0.0692331
0.0693569
0.0694836
0.0696136
0.069747
0.0698839
0.0700247
0.0701695
0.0703186
0.0704723
0.0706307
0.0707943
0.0709632
0.0711379
0.0713186
0.0715056
0.0716994
0.0719003
0.0721086
0.0723249
0.0725495
0.0727828
0.0730254
0.0732777
0.0735402
0.0738135
0.074098
0.0743944
0.0747032
0.075025
0.0753605
0.0757103
0.0760751
0.0764556
0.0768525
0.0772665
0.0776984
0.078149
0.0786191
0.0791094
0.079621
0.0801545
0.080711
0.0812912
0.0818962
0.0825268
0.083184
0.0838687
0.084582
0.0853248
0.086098
0.0869027
0.0877397
0.0886102
0.0895149
0.0904549
0.0914311
0.0924443
0.0934954
0.0945851
0.0957143
0.0968837
0.0980937
0.099345
0.100638
0.101973
0.10335
0.10477
0.106232
0.107736
0.109282
0.110869
0.112496
0.114162
0.115866
0.117606
0.119381
0.121187
0.123023
0.124886
0.126772
0.128677
0.130597
0.132527
0.134463
0.136398
0.138326
0.14024
0.142133
0.143996
0.145822
0.147601
0.149324
0.150979
0.152556
0.154044
0.155431
0.156703
0.15785
0.158857
0.159711
0.160398
0.160905
0.161219
0.161326
0.161213
0.160868
0.160278
0.159432
0.158321
0.156935
0.155268
0.153312
0.151065
0.148524
0.145688
0.142561
0.139147
0.135454
0.131492
0.127273
0.122813
0.118131
0.113247
0.108186
0.102973
0.0976367
0.0922067
0.0867145
0.081193
0.0756754
0.0701956
0.0647867
0.0594817
0.0543118
0.0493067
0.0444938
0.0398977
0.0355401
0.0314391
0.0276089
0.02406
0.0208231
0.0178749
0.0151873
0.0127833
0.010654
0.00878713
0.00716786
0.00577914
0.00460225
0.00361734
0.00280396
0.00214163
0.00161027
0.00119067
0.000864869
0.000616383
0.000430457
0.00029415
0.000196379
0.000127873
8.10624e-05
4.99278e-05
2.98109e-05
1.72132e-05
9.58713e-06
5.13422e-06
2.63541e-06
1.29252e-06
6.02561e-07
2.66451e-07
1.11175e-07
4.31974e-08
1.58258e-08
5.05959e-09
1.90221e-09
3.44447e-10
5.61299e-10
9.96273e-14
-1.06202e-17
-1.76072e-18
5.33358e-11
-2.7948e-20
0
0
-2.02202e-11
)
;

boundaryField
{
    fixedWall
    {
        type            calculated;
        value           uniform 0;
    }
    outlet
    {
        type            calculated;
        value           uniform 0;
    }
    defaultFaces
    {
        type            empty;
    }
}


// ************************************************************************* //
