/*--------------------------------*- C++ -*----------------------------------*\
| =========                 |                                                 |
| \\      /  F ield         | OpenFOAM: The Open Source CFD Toolbox           |
|  \\    /   O peration     | Version:  2406                                  |
|   \\  /    A nd           | Website:  www.openfoam.com                      |
|    \\/     M anipulation  |                                                 |
\*---------------------------------------------------------------------------*/
FoamFile
{
    version     2.0;
    format      ascii;
    arch        "LSB;label=32;scalar=64";
    class       volVectorField;
    location    "14.7";
    object      U;
}
// * * * * * * * * * * * * * * * * * * * * * * * * * * * * * * * * * * * * * //

dimensions      [0 1 -1 0 0 0 0];

internalField   nonuniform List<vector> 
1000
(
(-5.33744e-07 0 0)
(-2.59291e-06 0 0)
(-6.74206e-06 0 0)
(-1.25352e-05 0 0)
(-1.96321e-05 0 0)
(-2.78205e-05 0 0)
(-3.69528e-05 0 0)
(-4.6904e-05 0 0)
(-5.75691e-05 0 0)
(-6.8855e-05 0 0)
(-8.06881e-05 0 0)
(-9.30004e-05 0 0)
(-0.000105735 0 0)
(-0.000118841 0 0)
(-0.000132276 0 0)
(-0.000145999 0 0)
(-0.000159977 0 0)
(-0.000174179 0 0)
(-0.000188575 0 0)
(-0.000203143 0 0)
(-0.000217857 0 0)
(-0.000232698 0 0)
(-0.000247647 0 0)
(-0.000262687 0 0)
(-0.0002778 0 0)
(-0.000292972 0 0)
(-0.00030819 0 0)
(-0.00032344 0 0)
(-0.000338713 0 0)
(-0.000353996 0 0)
(-0.000369279 0 0)
(-0.000384553 0 0)
(-0.000399809 0 0)
(-0.000415039 0 0)
(-0.000430235 0 0)
(-0.000445389 0 0)
(-0.000460494 0 0)
(-0.000475545 0 0)
(-0.000490535 0 0)
(-0.000505459 0 0)
(-0.00052031 0 0)
(-0.000535085 0 0)
(-0.000549777 0 0)
(-0.000564384 0 0)
(-0.0005789 0 0)
(-0.000593321 0 0)
(-0.000607644 0 0)
(-0.000621864 0 0)
(-0.000635979 0 0)
(-0.000649985 0 0)
(-0.000663881 0 0)
(-0.000677661 0 0)
(-0.000691324 0 0)
(-0.000704868 0 0)
(-0.000718291 0 0)
(-0.000731588 0 0)
(-0.00074476 0 0)
(-0.000757804 0 0)
(-0.000770719 0 0)
(-0.000783502 0 0)
(-0.000796151 0 0)
(-0.000808668 0 0)
(-0.000821047 0 0)
(-0.000833291 0 0)
(-0.000845397 0 0)
(-0.000857363 0 0)
(-0.00086919 0 0)
(-0.000880876 0 0)
(-0.000892421 0 0)
(-0.000903824 0 0)
(-0.000915085 0 0)
(-0.000926203 0 0)
(-0.000937178 0 0)
(-0.000948009 0 0)
(-0.000958698 0 0)
(-0.000969241 0 0)
(-0.000979642 0 0)
(-0.000989898 0 0)
(-0.00100001 0 0)
(-0.00100998 0 0)
(-0.00101981 0 0)
(-0.00102949 0 0)
(-0.00103903 0 0)
(-0.00104842 0 0)
(-0.00105768 0 0)
(-0.00106679 0 0)
(-0.00107576 0 0)
(-0.0010846 0 0)
(-0.00109329 0 0)
(-0.00110184 0 0)
(-0.00111026 0 0)
(-0.00111853 0 0)
(-0.00112667 0 0)
(-0.00113467 0 0)
(-0.00114254 0 0)
(-0.00115028 0 0)
(-0.00115788 0 0)
(-0.00116535 0 0)
(-0.00117268 0 0)
(-0.00117989 0 0)
(-0.00118696 0 0)
(-0.00119391 0 0)
(-0.00120073 0 0)
(-0.00120743 0 0)
(-0.001214 0 0)
(-0.00122045 0 0)
(-0.00122677 0 0)
(-0.00123297 0 0)
(-0.00123906 0 0)
(-0.00124502 0 0)
(-0.00125087 0 0)
(-0.0012566 0 0)
(-0.00126222 0 0)
(-0.00126772 0 0)
(-0.00127311 0 0)
(-0.00127839 0 0)
(-0.00128356 0 0)
(-0.00128862 0 0)
(-0.00129358 0 0)
(-0.00129843 0 0)
(-0.00130318 0 0)
(-0.00130782 0 0)
(-0.00131237 0 0)
(-0.00131681 0 0)
(-0.00132116 0 0)
(-0.00132541 0 0)
(-0.00132956 0 0)
(-0.00133362 0 0)
(-0.00133759 0 0)
(-0.00134146 0 0)
(-0.00134525 0 0)
(-0.00134895 0 0)
(-0.00135256 0 0)
(-0.00135609 0 0)
(-0.00135953 0 0)
(-0.00136289 0 0)
(-0.00136617 0 0)
(-0.00136937 0 0)
(-0.00137249 0 0)
(-0.00137553 0 0)
(-0.0013785 0 0)
(-0.00138139 0 0)
(-0.00138421 0 0)
(-0.00138696 0 0)
(-0.00138964 0 0)
(-0.00139225 0 0)
(-0.00139479 0 0)
(-0.00139727 0 0)
(-0.00139968 0 0)
(-0.00140203 0 0)
(-0.00140431 0 0)
(-0.00140653 0 0)
(-0.0014087 0 0)
(-0.0014108 0 0)
(-0.00141285 0 0)
(-0.00141484 0 0)
(-0.00141678 0 0)
(-0.00141866 0 0)
(-0.00142049 0 0)
(-0.00142227 0 0)
(-0.001424 0 0)
(-0.00142568 0 0)
(-0.00142731 0 0)
(-0.00142889 0 0)
(-0.00143043 0 0)
(-0.00143192 0 0)
(-0.00143337 0 0)
(-0.00143477 0 0)
(-0.00143614 0 0)
(-0.00143746 0 0)
(-0.00143874 0 0)
(-0.00143998 0 0)
(-0.00144119 0 0)
(-0.00144236 0 0)
(-0.0014435 0 0)
(-0.00144461 0 0)
(-0.00144567 0 0)
(-0.00144671 0 0)
(-0.00144771 0 0)
(-0.00144868 0 0)
(-0.00144962 0 0)
(-0.00145052 0 0)
(-0.0014514 0 0)
(-0.00145225 0 0)
(-0.00145307 0 0)
(-0.00145387 0 0)
(-0.00145464 0 0)
(-0.00145538 0 0)
(-0.0014561 0 0)
(-0.00145679 0 0)
(-0.00145746 0 0)
(-0.00145811 0 0)
(-0.00145873 0 0)
(-0.00145934 0 0)
(-0.00145992 0 0)
(-0.00146048 0 0)
(-0.00146102 0 0)
(-0.00146155 0 0)
(-0.00146205 0 0)
(-0.00146254 0 0)
(-0.00146301 0 0)
(-0.00146347 0 0)
(-0.0014639 0 0)
(-0.00146433 0 0)
(-0.00146474 0 0)
(-0.00146514 0 0)
(-0.00146552 0 0)
(-0.00146588 0 0)
(-0.00146623 0 0)
(-0.00146657 0 0)
(-0.0014669 0 0)
(-0.00146721 0 0)
(-0.00146751 0 0)
(-0.0014678 0 0)
(-0.00146808 0 0)
(-0.00146835 0 0)
(-0.00146861 0 0)
(-0.00146886 0 0)
(-0.0014691 0 0)
(-0.00146933 0 0)
(-0.00146955 0 0)
(-0.00146977 0 0)
(-0.00146997 0 0)
(-0.00147017 0 0)
(-0.00147035 0 0)
(-0.00147054 0 0)
(-0.00147071 0 0)
(-0.00147088 0 0)
(-0.00147104 0 0)
(-0.00147119 0 0)
(-0.00147133 0 0)
(-0.00147148 0 0)
(-0.00147161 0 0)
(-0.00147174 0 0)
(-0.00147187 0 0)
(-0.00147199 0 0)
(-0.0014721 0 0)
(-0.00147221 0 0)
(-0.00147231 0 0)
(-0.00147241 0 0)
(-0.00147251 0 0)
(-0.0014726 0 0)
(-0.00147269 0 0)
(-0.00147277 0 0)
(-0.00147285 0 0)
(-0.00147293 0 0)
(-0.001473 0 0)
(-0.00147307 0 0)
(-0.00147314 0 0)
(-0.0014732 0 0)
(-0.00147326 0 0)
(-0.00147332 0 0)
(-0.00147337 0 0)
(-0.00147343 0 0)
(-0.00147348 0 0)
(-0.00147353 0 0)
(-0.00147357 0 0)
(-0.00147361 0 0)
(-0.00147366 0 0)
(-0.0014737 0 0)
(-0.00147373 0 0)
(-0.00147377 0 0)
(-0.0014738 0 0)
(-0.00147384 0 0)
(-0.00147387 0 0)
(-0.0014739 0 0)
(-0.00147393 0 0)
(-0.00147395 0 0)
(-0.00147398 0 0)
(-0.001474 0 0)
(-0.00147402 0 0)
(-0.00147404 0 0)
(-0.00147406 0 0)
(-0.00147408 0 0)
(-0.0014741 0 0)
(-0.00147412 0 0)
(-0.00147414 0 0)
(-0.00147415 0 0)
(-0.00147417 0 0)
(-0.00147418 0 0)
(-0.00147419 0 0)
(-0.00147421 0 0)
(-0.00147422 0 0)
(-0.00147423 0 0)
(-0.00147424 0 0)
(-0.00147425 0 0)
(-0.00147426 0 0)
(-0.00147427 0 0)
(-0.00147427 0 0)
(-0.00147428 0 0)
(-0.00147429 0 0)
(-0.0014743 0 0)
(-0.0014743 0 0)
(-0.00147431 0 0)
(-0.00147431 0 0)
(-0.00147432 0 0)
(-0.00147432 0 0)
(-0.00147433 0 0)
(-0.00147433 0 0)
(-0.00147434 0 0)
(-0.00147434 0 0)
(-0.00147434 0 0)
(-0.00147435 0 0)
(-0.00147435 0 0)
(-0.00147435 0 0)
(-0.00147436 0 0)
(-0.00147436 0 0)
(-0.00147436 0 0)
(-0.00147436 0 0)
(-0.00147436 0 0)
(-0.00147436 0 0)
(-0.00147437 0 0)
(-0.00147437 0 0)
(-0.00147437 0 0)
(-0.00147437 0 0)
(-0.00147437 0 0)
(-0.00147437 0 0)
(-0.00147437 0 0)
(-0.00147437 0 0)
(-0.00147437 0 0)
(-0.00147438 0 0)
(-0.00147438 0 0)
(-0.00147438 0 0)
(-0.00147438 0 0)
(-0.00147438 0 0)
(-0.00147438 0 0)
(-0.00147438 0 0)
(-0.00147438 0 0)
(-0.00147438 0 0)
(-0.00147438 0 0)
(-0.00147438 0 0)
(-0.00147438 0 0)
(-0.00147438 0 0)
(-0.00147438 0 0)
(-0.00147438 0 0)
(-0.00147438 0 0)
(-0.00147438 0 0)
(-0.00147438 0 0)
(-0.00147438 0 0)
(-0.00147438 0 0)
(-0.00147438 0 0)
(-0.00147438 0 0)
(-0.00147438 0 0)
(-0.00147438 0 0)
(-0.00147438 0 0)
(-0.00147438 0 0)
(-0.00147438 0 0)
(-0.00147438 0 0)
(-0.00147438 0 0)
(-0.00147438 0 0)
(-0.00147438 0 0)
(-0.00147438 0 0)
(-0.00147438 0 0)
(-0.00147438 0 0)
(-0.00147438 0 0)
(-0.00147438 0 0)
(-0.00147438 0 0)
(-0.00147438 0 0)
(-0.00147438 0 0)
(-0.00147438 0 0)
(-0.00147438 0 0)
(-0.00147438 0 0)
(-0.00147438 0 0)
(-0.00147438 0 0)
(-0.00147438 0 0)
(-0.00147438 0 0)
(-0.00147438 0 0)
(-0.00147438 0 0)
(-0.00147438 0 0)
(-0.00147438 0 0)
(-0.00147438 0 0)
(-0.00147438 0 0)
(-0.00147438 0 0)
(-0.00147438 0 0)
(-0.00147438 0 0)
(-0.00147438 0 0)
(-0.00147438 0 0)
(-0.00147438 0 0)
(-0.00147438 0 0)
(-0.00147438 0 0)
(-0.00147438 0 0)
(-0.00147438 0 0)
(-0.00147438 0 0)
(-0.00147438 0 0)
(-0.00147438 0 0)
(-0.00147438 0 0)
(-0.00147438 0 0)
(-0.00147438 0 0)
(-0.00147438 0 0)
(-0.00147438 0 0)
(-0.00147438 0 0)
(-0.00147438 0 0)
(-0.00147438 0 0)
(-0.00147439 0 0)
(-0.00147439 0 0)
(-0.00147439 0 0)
(-0.00147439 0 0)
(-0.00147439 0 0)
(-0.00147439 0 0)
(-0.00147439 0 0)
(-0.00147439 0 0)
(-0.00147439 0 0)
(-0.00147439 0 0)
(-0.00147439 0 0)
(-0.00147439 0 0)
(-0.00147439 0 0)
(-0.00147439 0 0)
(-0.00147439 0 0)
(-0.00147439 0 0)
(-0.00147439 0 0)
(-0.00147439 0 0)
(-0.00147439 0 0)
(-0.00147439 0 0)
(-0.00147439 0 0)
(-0.00147439 0 0)
(-0.00147439 0 0)
(-0.00147439 0 0)
(-0.00147439 0 0)
(-0.00147439 0 0)
(-0.00147439 0 0)
(-0.00147439 0 0)
(-0.0014744 0 0)
(-0.00147439 0 0)
(-0.00147439 0 0)
(-0.0014744 0 0)
(-0.00147439 0 0)
(-0.0014744 0 0)
(-0.0014744 0 0)
(-0.0014744 0 0)
(-0.0014744 0 0)
(-0.0014744 0 0)
(-0.0014744 0 0)
(-0.0014744 0 0)
(-0.0014744 0 0)
(-0.0014744 0 0)
(-0.0014744 0 0)
(-0.0014744 0 0)
(-0.0014744 0 0)
(-0.0014744 0 0)
(-0.0014744 0 0)
(-0.0014744 0 0)
(-0.0014744 0 0)
(-0.0014744 0 0)
(-0.0014744 0 0)
(-0.0014744 0 0)
(-0.0014744 0 0)
(-0.0014744 0 0)
(-0.0014744 0 0)
(-0.0014744 0 0)
(-0.0014744 0 0)
(-0.0014744 0 0)
(-0.0014744 0 0)
(-0.0014744 0 0)
(-0.0014744 0 0)
(-0.0014744 0 0)
(-0.0014744 0 0)
(-0.0014744 0 0)
(-0.0014744 0 0)
(-0.0014744 0 0)
(-0.0014744 0 0)
(-0.0014744 0 0)
(-0.0014744 0 0)
(-0.0014744 0 0)
(-0.0014744 0 0)
(-0.0014744 0 0)
(-0.0014744 0 0)
(-0.0014744 0 0)
(-0.0014744 0 0)
(-0.0014744 0 0)
(-0.0014744 0 0)
(-0.0014744 0 0)
(-0.0014744 0 0)
(-0.0014744 0 0)
(-0.0014744 0 0)
(-0.0014744 0 0)
(-0.0014744 0 0)
(-0.0014744 0 0)
(-0.0014744 0 0)
(-0.0014744 0 0)
(-0.0014744 0 0)
(-0.0014744 0 0)
(-0.0014744 0 0)
(-0.0014744 0 0)
(-0.0014744 0 0)
(-0.0014744 0 0)
(-0.0014744 0 0)
(-0.0014744 0 0)
(-0.0014744 0 0)
(-0.0014744 0 0)
(-0.0014744 0 0)
(-0.0014744 0 0)
(-0.0014744 0 0)
(-0.0014744 0 0)
(-0.0014744 0 0)
(-0.00147441 0 0)
(-0.0014744 0 0)
(-0.00147441 0 0)
(-0.0014744 0 0)
(-0.0014744 0 0)
(-0.0014744 0 0)
(-0.0014744 0 0)
(-0.0014744 0 0)
(-0.0014744 0 0)
(-0.0014744 0 0)
(-0.0014744 0 0)
(-0.0014744 0 0)
(-0.0014744 0 0)
(-0.0014744 0 0)
(-0.0014744 0 0)
(-0.0014744 0 0)
(-0.0014744 0 0)
(-0.0014744 0 0)
(-0.00147441 0 0)
(-0.0014744 0 0)
(-0.0014744 0 0)
(-0.0014744 0 0)
(-0.0014744 0 0)
(-0.0014744 0 0)
(-0.0014744 0 0)
(-0.0014744 0 0)
(-0.0014744 0 0)
(-0.0014744 0 0)
(-0.0014744 0 0)
(-0.0014744 0 0)
(-0.0014744 0 0)
(-0.0014744 0 0)
(-0.0014744 0 0)
(-0.0014744 0 0)
(-0.0014744 0 0)
(-0.0014744 0 0)
(-0.0014744 0 0)
(-0.0014744 0 0)
(-0.0014744 0 0)
(-0.0014744 0 0)
(-0.0014744 0 0)
(-0.0014744 0 0)
(-0.0014744 0 0)
(-0.0014744 0 0)
(-0.0014744 0 0)
(-0.0014744 0 0)
(-0.0014744 0 0)
(-0.0014744 0 0)
(-0.0014744 0 0)
(-0.0014744 0 0)
(-0.0014744 0 0)
(-0.0014744 0 0)
(-0.0014744 0 0)
(-0.0014744 0 0)
(-0.0014744 0 0)
(-0.0014744 0 0)
(-0.0014744 0 0)
(-0.0014744 0 0)
(-0.0014744 0 0)
(-0.0014744 0 0)
(-0.0014744 0 0)
(-0.0014744 0 0)
(-0.0014744 0 0)
(-0.0014744 0 0)
(-0.0014744 0 0)
(-0.0014744 0 0)
(-0.0014744 0 0)
(-0.0014744 0 0)
(-0.0014744 0 0)
(-0.0014744 0 0)
(-0.0014744 0 0)
(-0.0014744 0 0)
(-0.0014744 0 0)
(-0.0014744 0 0)
(-0.0014744 0 0)
(-0.0014744 0 0)
(-0.0014744 0 0)
(-0.0014744 0 0)
(-0.0014744 0 0)
(-0.0014744 0 0)
(-0.0014744 0 0)
(-0.0014744 0 0)
(-0.0014744 0 0)
(-0.0014744 0 0)
(-0.0014744 0 0)
(-0.0014744 0 0)
(-0.0014744 0 0)
(-0.0014744 0 0)
(-0.0014744 0 0)
(-0.0014744 0 0)
(-0.0014744 0 0)
(-0.0014744 0 0)
(-0.0014744 0 0)
(-0.0014744 0 0)
(-0.0014744 0 0)
(-0.0014744 0 0)
(-0.0014744 0 0)
(-0.0014744 0 0)
(-0.0014744 0 0)
(-0.0014744 0 0)
(-0.0014744 0 0)
(-0.0014744 0 0)
(-0.0014744 0 0)
(-0.0014744 0 0)
(-0.0014744 0 0)
(-0.0014744 0 0)
(-0.0014744 0 0)
(-0.0014744 0 0)
(-0.0014744 0 0)
(-0.0014744 0 0)
(-0.0014744 0 0)
(-0.0014744 0 0)
(-0.0014744 0 0)
(-0.0014744 0 0)
(-0.0014744 0 0)
(-0.0014744 0 0)
(-0.0014744 0 0)
(-0.0014744 0 0)
(-0.0014744 0 0)
(-0.0014744 0 0)
(-0.0014744 0 0)
(-0.0014744 0 0)
(-0.0014744 0 0)
(-0.0014744 0 0)
(-0.0014744 0 0)
(-0.0014744 0 0)
(-0.0014744 0 0)
(-0.0014744 0 0)
(-0.0014744 0 0)
(-0.0014744 0 0)
(-0.0014744 0 0)
(-0.0014744 0 0)
(-0.0014744 0 0)
(-0.0014744 0 0)
(-0.0014744 0 0)
(-0.0014744 0 0)
(-0.0014744 0 0)
(-0.0014744 0 0)
(-0.0014744 0 0)
(-0.0014744 0 0)
(-0.0014744 0 0)
(-0.0014744 0 0)
(-0.0014744 0 0)
(-0.0014744 0 0)
(-0.0014744 0 0)
(-0.0014744 0 0)
(-0.0014744 0 0)
(-0.0014744 0 0)
(-0.0014744 0 0)
(-0.0014744 0 0)
(-0.0014744 0 0)
(-0.0014744 0 0)
(-0.0014744 0 0)
(-0.0014744 0 0)
(-0.0014744 0 0)
(-0.0014744 0 0)
(-0.0014744 0 0)
(-0.0014744 0 0)
(-0.0014744 0 0)
(-0.0014744 0 0)
(-0.0014744 0 0)
(-0.0014744 0 0)
(-0.0014744 0 0)
(-0.0014744 0 0)
(-0.0014744 0 0)
(-0.0014744 0 0)
(-0.0014744 0 0)
(-0.00147439 0 0)
(-0.00147439 0 0)
(-0.00147439 0 0)
(-0.00147439 0 0)
(-0.00147439 0 0)
(-0.00147439 0 0)
(-0.0014744 0 0)
(-0.00147439 0 0)
(-0.0014744 0 0)
(-0.00147439 0 0)
(-0.00147439 0 0)
(-0.00147439 0 0)
(-0.00147439 0 0)
(-0.0014744 0 0)
(-0.00147439 0 0)
(-0.0014744 0 0)
(-0.00147439 0 0)
(-0.0014744 0 0)
(-0.00147439 0 0)
(-0.0014744 0 0)
(-0.0014744 0 0)
(-0.0014744 0 0)
(-0.0014744 0 0)
(-0.0014744 0 0)
(-0.0014744 0 0)
(-0.0014744 0 0)
(-0.0014744 0 0)
(-0.0014744 0 0)
(-0.0014744 0 0)
(-0.0014744 0 0)
(-0.0014744 0 0)
(-0.0014744 0 0)
(-0.0014744 0 0)
(-0.0014744 0 0)
(-0.00147441 0 0)
(-0.00147441 0 0)
(-0.00147441 0 0)
(-0.00147441 0 0)
(-0.00147441 0 0)
(-0.00147441 0 0)
(-0.00147442 0 0)
(-0.00147442 0 0)
(-0.00147442 0 0)
(-0.00147442 0 0)
(-0.00147443 0 0)
(-0.00147443 0 0)
(-0.00147443 0 0)
(-0.00147443 0 0)
(-0.00147444 0 0)
(-0.00147444 0 0)
(-0.00147445 0 0)
(-0.00147445 0 0)
(-0.00147445 0 0)
(-0.00147446 0 0)
(-0.00147446 0 0)
(-0.00147447 0 0)
(-0.00147448 0 0)
(-0.00147448 0 0)
(-0.00147449 0 0)
(-0.0014745 0 0)
(-0.0014745 0 0)
(-0.00147451 0 0)
(-0.00147452 0 0)
(-0.00147453 0 0)
(-0.00147454 0 0)
(-0.00147455 0 0)
(-0.00147456 0 0)
(-0.00147457 0 0)
(-0.00147459 0 0)
(-0.0014746 0 0)
(-0.00147461 0 0)
(-0.00147463 0 0)
(-0.00147465 0 0)
(-0.00147466 0 0)
(-0.00147468 0 0)
(-0.0014747 0 0)
(-0.00147472 0 0)
(-0.00147474 0 0)
(-0.00147477 0 0)
(-0.00147479 0 0)
(-0.00147482 0 0)
(-0.00147485 0 0)
(-0.00147488 0 0)
(-0.00147491 0 0)
(-0.00147494 0 0)
(-0.00147498 0 0)
(-0.00147502 0 0)
(-0.00147506 0 0)
(-0.0014751 0 0)
(-0.00147514 0 0)
(-0.00147519 0 0)
(-0.00147524 0 0)
(-0.0014753 0 0)
(-0.00147535 0 0)
(-0.00147541 0 0)
(-0.00147548 0 0)
(-0.00147554 0 0)
(-0.00147561 0 0)
(-0.00147569 0 0)
(-0.00147577 0 0)
(-0.00147585 0 0)
(-0.00147594 0 0)
(-0.00147604 0 0)
(-0.00147613 0 0)
(-0.00147624 0 0)
(-0.00147635 0 0)
(-0.00147646 0 0)
(-0.00147659 0 0)
(-0.00147671 0 0)
(-0.00147685 0 0)
(-0.00147699 0 0)
(-0.00147714 0 0)
(-0.0014773 0 0)
(-0.00147747 0 0)
(-0.00147764 0 0)
(-0.00147783 0 0)
(-0.00147803 0 0)
(-0.00147823 0 0)
(-0.00147845 0 0)
(-0.00147867 0 0)
(-0.00147891 0 0)
(-0.00147916 0 0)
(-0.00147942 0 0)
(-0.0014797 0 0)
(-0.00147999 0 0)
(-0.00148029 0 0)
(-0.00148061 0 0)
(-0.00148095 0 0)
(-0.0014813 0 0)
(-0.00148167 0 0)
(-0.00148205 0 0)
(-0.00148246 0 0)
(-0.00148288 0 0)
(-0.00148332 0 0)
(-0.00148379 0 0)
(-0.00148428 0 0)
(-0.00148478 0 0)
(-0.00148532 0 0)
(-0.00148587 0 0)
(-0.00148645 0 0)
(-0.00148706 0 0)
(-0.0014877 0 0)
(-0.00148836 0 0)
(-0.00148905 0 0)
(-0.00148978 0 0)
(-0.00149053 0 0)
(-0.00149132 0 0)
(-0.00149214 0 0)
(-0.001493 0 0)
(-0.00149389 0 0)
(-0.00149482 0 0)
(-0.00149579 0 0)
(-0.0014968 0 0)
(-0.00149786 0 0)
(-0.00149895 0 0)
(-0.00150009 0 0)
(-0.00150128 0 0)
(-0.00150251 0 0)
(-0.00150379 0 0)
(-0.00150513 0 0)
(-0.00150651 0 0)
(-0.00150795 0 0)
(-0.00150945 0 0)
(-0.001511 0 0)
(-0.00151261 0 0)
(-0.00151428 0 0)
(-0.00151602 0 0)
(-0.00151781 0 0)
(-0.00151968 0 0)
(-0.00152161 0 0)
(-0.00152361 0 0)
(-0.00152569 0 0)
(-0.00152783 0 0)
(-0.00153006 0 0)
(-0.00153236 0 0)
(-0.00153474 0 0)
(-0.0015372 0 0)
(-0.00153974 0 0)
(-0.00154238 0 0)
(-0.00154509 0 0)
(-0.0015479 0 0)
(-0.0015508 0 0)
(-0.0015538 0 0)
(-0.00155689 0 0)
(-0.00156008 0 0)
(-0.00156336 0 0)
(-0.00156676 0 0)
(-0.00157025 0 0)
(-0.00157385 0 0)
(-0.00157757 0 0)
(-0.00158139 0 0)
(-0.00158532 0 0)
(-0.00158937 0 0)
(-0.00159354 0 0)
(-0.00159783 0 0)
(-0.00160223 0 0)
(-0.00160676 0 0)
(-0.00161142 0 0)
(-0.00161621 0 0)
(-0.00162112 0 0)
(-0.00162616 0 0)
(-0.00163134 0 0)
(-0.00163665 0 0)
(-0.0016421 0 0)
(-0.00164769 0 0)
(-0.00165342 0 0)
(-0.00165928 0 0)
(-0.0016653 0 0)
(-0.00167145 0 0)
(-0.00167776 0 0)
(-0.00168421 0 0)
(-0.00169081 0 0)
(-0.00169756 0 0)
(-0.00170446 0 0)
(-0.00171151 0 0)
(-0.00171872 0 0)
(-0.00172608 0 0)
(-0.00173359 0 0)
(-0.00174126 0 0)
(-0.00174909 0 0)
(-0.00175708 0 0)
(-0.00176522 0 0)
(-0.00177351 0 0)
(-0.00178197 0 0)
(-0.00179058 0 0)
(-0.00179935 0 0)
(-0.00180828 0 0)
(-0.00181736 0 0)
(-0.00182659 0 0)
(-0.00183598 0 0)
(-0.00184553 0 0)
(-0.00185522 0 0)
(-0.00186507 0 0)
(-0.00187507 0 0)
(-0.00188521 0 0)
(-0.0018955 0 0)
(-0.00190594 0 0)
(-0.00191651 0 0)
(-0.00192723 0 0)
(-0.00193808 0 0)
(-0.00194906 0 0)
(-0.00196018 0 0)
(-0.00197142 0 0)
(-0.00198279 0 0)
(-0.00199427 0 0)
(-0.00200587 0 0)
(-0.00201758 0 0)
(-0.0020294 0 0)
(-0.00204132 0 0)
(-0.00205333 0 0)
(-0.00206544 0 0)
(-0.00207763 0 0)
(-0.00208989 0 0)
(-0.00210224 0 0)
(-0.00211465 0 0)
(-0.00212711 0 0)
(-0.00213963 0 0)
(-0.00215219 0 0)
(-0.0021648 0 0)
(-0.00217742 0 0)
(-0.00219007 0 0)
(-0.00220273 0 0)
(-0.00221539 0 0)
(-0.00222805 0 0)
(-0.00224068 0 0)
(-0.00225329 0 0)
(-0.00226585 0 0)
(-0.00227837 0 0)
(-0.00229082 0 0)
(-0.00230321 0 0)
(-0.0023155 0 0)
(-0.00232769 0 0)
(-0.00233978 0 0)
(-0.00235173 0 0)
(-0.00236355 0 0)
(-0.00237521 0 0)
(-0.0023867 0 0)
(-0.002398 0 0)
(-0.0024091 0 0)
(-0.00241998 0 0)
(-0.00243062 0 0)
(-0.00244101 0 0)
(-0.00245113 0 0)
(-0.00246095 0 0)
(-0.00247046 0 0)
(-0.00247963 0 0)
(-0.00248845 0 0)
(-0.00249688 0 0)
(-0.00250491 0 0)
(-0.00251249 0 0)
(-0.00251959 0 0)
(-0.00252616 0 0)
(-0.00253218 0 0)
(-0.00253743 0 0)
(-0.00254192 0 0)
(-0.00254643 0 0)
(-0.00255096 0 0)
(-0.00255471 0 0)
(-0.0025575 0 0)
(-0.00255948 0 0)
(-0.00256064 0 0)
(-0.00256098 0 0)
(-0.00256047 0 0)
(-0.00255908 0 0)
(-0.00255678 0 0)
(-0.00255352 0 0)
(-0.00254927 0 0)
(-0.00254397 0 0)
(-0.00253758 0 0)
(-0.00253006 0 0)
(-0.00252133 0 0)
(-0.00251136 0 0)
(-0.00250009 0 0)
(-0.00248747 0 0)
(-0.00247342 0 0)
(-0.0024579 0 0)
(-0.00244085 0 0)
(-0.0024222 0 0)
(-0.00240188 0 0)
(-0.00237985 0 0)
(-0.00235603 0 0)
(-0.00233037 0 0)
(-0.00230279 0 0)
(-0.00227326 0 0)
(-0.0022417 0 0)
(-0.00220807 0 0)
(-0.00217232 0 0)
(-0.00213441 0 0)
(-0.0020943 0 0)
(-0.00205196 0 0)
(-0.00200738 0 0)
(-0.00196056 0 0)
(-0.00191148 0 0)
(-0.00186025 0 0)
(-0.00180711 0 0)
(-0.0017521 0 0)
(-0.00169327 0 0)
(-0.00162625 0 0)
(-0.00156084 0 0)
)
;

boundaryField
{
    fixedWall
    {
        type            fixedValue;
        value           uniform (0 0 0);
    }
    outlet
    {
        type            pressureInletOutletVelocity;
        value           uniform (-0.00156084 0 0);
    }
    defaultFaces
    {
        type            empty;
    }
}


// ************************************************************************* //
