/*--------------------------------*- C++ -*----------------------------------*\
| =========                 |                                                 |
| \\      /  F ield         | OpenFOAM: The Open Source CFD Toolbox           |
|  \\    /   O peration     | Version:  2406                                  |
|   \\  /    A nd           | Website:  www.openfoam.com                      |
|    \\/     M anipulation  |                                                 |
\*---------------------------------------------------------------------------*/
FoamFile
{
    version     2.0;
    format      ascii;
    arch        "LSB;label=32;scalar=64";
    class       volScalarField;
    location    "10.1";
    object      T;
}
// * * * * * * * * * * * * * * * * * * * * * * * * * * * * * * * * * * * * * //

dimensions      [0 0 0 1 0 0 0];

internalField   nonuniform List<scalar> 
1000
(
305.801
329.383
351.205
371.552
390.634
408.616
425.627
441.774
457.144
471.81
485.833
499.268
512.159
524.546
536.465
547.946
559.017
569.703
580.026
590.004
599.657
609.001
618.051
626.82
635.321
643.566
651.566
659.329
666.867
674.186
681.296
688.204
694.917
701.442
707.784
713.951
719.947
725.778
731.449
736.964
742.329
747.548
752.625
757.564
762.369
767.043
771.591
776.015
780.318
784.505
788.577
792.539
796.392
800.14
803.785
807.33
810.777
814.129
817.388
820.557
823.637
826.631
829.541
832.369
835.118
837.788
840.382
842.902
845.35
847.727
850.035
852.276
854.452
856.564
858.613
860.602
862.532
864.403
866.219
867.98
869.687
871.342
872.946
874.501
876.008
877.468
878.882
880.252
881.578
882.862
884.105
885.308
886.472
887.598
888.687
889.741
890.759
891.744
892.696
893.616
894.505
895.363
896.192
896.993
897.766
898.512
899.232
899.927
900.597
901.243
901.867
902.467
903.046
903.604
904.142
904.66
905.158
905.638
906.1
906.545
906.973
907.384
907.78
908.161
908.527
908.878
909.216
909.541
909.852
910.151
910.439
910.714
910.979
911.233
911.476
911.71
911.933
912.148
912.353
912.55
912.738
912.919
913.091
913.257
913.415
913.566
913.711
913.849
913.981
914.107
914.228
914.343
914.453
914.558
914.658
914.753
914.844
914.931
915.014
915.093
915.168
915.24
915.308
915.373
915.435
915.493
915.549
915.603
915.653
915.701
915.747
915.79
915.832
915.871
915.908
915.943
915.976
916.008
916.038
916.066
916.093
916.119
916.143
916.165
916.187
916.207
916.226
916.245
916.262
916.278
916.293
916.307
916.321
916.334
916.346
916.357
916.368
916.378
916.387
916.396
916.404
916.412
916.419
916.426
916.432
916.438
916.443
916.449
916.453
916.458
916.462
916.466
916.469
916.473
916.476
916.479
916.481
916.484
916.486
916.488
916.49
916.491
916.493
916.494
916.496
916.497
916.498
916.499
916.499
916.5
916.501
916.501
916.502
916.502
916.502
916.503
916.503
916.503
916.503
916.503
916.503
916.503
916.503
916.503
916.503
916.503
916.502
916.502
916.502
916.502
916.501
916.501
916.501
916.501
916.5
916.5
916.5
916.499
916.499
916.499
916.498
916.498
916.498
916.497
916.497
916.497
916.496
916.496
916.496
916.495
916.495
916.495
916.494
916.494
916.494
916.494
916.493
916.493
916.493
916.493
916.492
916.492
916.492
916.492
916.492
916.491
916.491
916.491
916.491
916.491
916.491
916.491
916.491
916.49
916.49
916.49
916.49
916.49
916.49
916.49
916.49
916.49
916.49
916.49
916.49
916.49
916.49
916.49
916.491
916.491
916.491
916.491
916.491
916.491
916.491
916.491
916.491
916.492
916.492
916.492
916.492
916.492
916.492
916.493
916.493
916.493
916.493
916.493
916.494
916.494
916.494
916.494
916.495
916.495
916.495
916.495
916.496
916.496
916.496
916.496
916.497
916.497
916.497
916.497
916.498
916.498
916.498
916.499
916.499
916.499
916.499
916.5
916.5
916.5
916.5
916.501
916.501
916.501
916.502
916.502
916.502
916.502
916.503
916.503
916.503
916.503
916.504
916.504
916.504
916.504
916.505
916.505
916.505
916.505
916.506
916.506
916.506
916.506
916.506
916.507
916.507
916.507
916.507
916.507
916.508
916.508
916.508
916.508
916.508
916.508
916.509
916.509
916.509
916.509
916.509
916.509
916.509
916.51
916.51
916.51
916.51
916.51
916.51
916.51
916.51
916.511
916.511
916.511
916.511
916.511
916.511
916.511
916.511
916.511
916.511
916.511
916.512
916.512
916.512
916.512
916.512
916.512
916.512
916.512
916.512
916.512
916.512
916.512
916.512
916.512
916.512
916.512
916.512
916.513
916.513
916.513
916.513
916.513
916.513
916.513
916.513
916.513
916.513
916.513
916.513
916.513
916.513
916.513
916.513
916.513
916.513
916.513
916.513
916.513
916.513
916.513
916.513
916.514
916.514
916.514
916.514
916.514
916.514
916.514
916.514
916.514
916.514
916.514
916.514
916.514
916.514
916.514
916.514
916.514
916.514
916.514
916.514
916.514
916.514
916.514
916.514
916.514
916.514
916.514
916.515
916.515
916.515
916.515
916.515
916.515
916.515
916.515
916.515
916.515
916.515
916.515
916.515
916.515
916.515
916.515
916.515
916.515
916.515
916.515
916.515
916.515
916.515
916.515
916.515
916.515
916.515
916.515
916.515
916.515
916.515
916.515
916.515
916.515
916.515
916.515
916.515
916.515
916.515
916.515
916.515
916.515
916.515
916.515
916.515
916.515
916.515
916.515
916.515
916.515
916.515
916.515
916.515
916.515
916.515
916.515
916.515
916.515
916.515
916.515
916.515
916.515
916.515
916.515
916.515
916.515
916.515
916.515
916.515
916.515
916.516
916.516
916.516
916.516
916.516
916.516
916.516
916.516
916.516
916.516
916.516
916.516
916.516
916.516
916.516
916.516
916.516
916.516
916.516
916.516
916.516
916.516
916.516
916.516
916.517
916.517
916.517
916.517
916.517
916.517
916.517
916.517
916.517
916.517
916.517
916.517
916.517
916.517
916.517
916.517
916.517
916.518
916.518
916.518
916.518
916.518
916.518
916.518
916.518
916.518
916.518
916.518
916.518
916.518
916.518
916.518
916.518
916.518
916.518
916.518
916.518
916.518
916.518
916.518
916.518
916.518
916.518
916.518
916.518
916.518
916.518
916.518
916.518
916.518
916.518
916.518
916.518
916.518
916.518
916.518
916.518
916.518
916.518
916.518
916.518
916.518
916.518
916.518
916.518
916.518
916.518
916.518
916.518
916.518
916.518
916.518
916.518
916.518
916.518
916.517
916.517
916.517
916.517
916.517
916.517
916.517
916.517
916.517
916.517
916.517
916.517
916.517
916.517
916.517
916.517
916.517
916.517
916.517
916.517
916.517
916.517
916.516
916.516
916.516
916.516
916.516
916.516
916.516
916.516
916.516
916.516
916.516
916.516
916.516
916.516
916.517
916.517
916.517
916.517
916.517
916.517
916.517
916.517
916.517
916.517
916.517
916.517
916.517
916.517
916.517
916.517
916.518
916.518
916.518
916.518
916.518
916.518
916.518
916.518
916.518
916.519
916.519
916.519
916.519
916.519
916.519
916.519
916.519
916.52
916.52
916.52
916.52
916.52
916.52
916.52
916.52
916.52
916.521
916.521
916.521
916.521
916.521
916.521
916.521
916.521
916.521
916.521
916.521
916.521
916.522
916.522
916.522
916.522
916.522
916.522
916.522
916.522
916.522
916.522
916.522
916.522
916.522
916.522
916.522
916.522
916.521
916.521
916.521
916.521
916.521
916.521
916.521
916.521
916.521
916.521
916.52
916.52
916.52
916.52
916.52
916.52
916.519
916.519
916.519
916.519
916.519
916.518
916.518
916.518
916.518
916.517
916.517
916.517
916.517
916.516
916.516
916.516
916.516
916.515
916.515
916.515
916.514
916.514
916.514
916.513
916.513
916.512
916.512
916.511
916.511
916.51
916.51
916.509
916.509
916.508
916.507
916.507
916.506
916.505
916.504
916.503
916.502
916.501
916.499
916.498
916.496
916.495
916.493
916.491
916.489
916.486
916.484
916.481
916.478
916.475
916.471
916.468
916.463
916.459
916.454
916.448
916.442
916.436
916.429
916.421
916.413
916.404
916.394
916.383
916.372
916.359
916.346
916.331
916.315
916.298
916.279
916.259
916.237
916.213
916.188
916.16
916.131
916.099
916.064
916.027
915.987
915.944
915.897
915.848
915.794
915.737
915.675
915.609
915.538
915.462
915.381
915.294
915.202
915.102
914.996
914.883
914.762
914.634
914.496
914.35
914.195
914.029
913.853
913.667
913.468
913.258
913.034
912.797
912.546
912.281
912
911.702
911.388
911.056
910.705
910.335
909.945
909.534
909.101
908.645
908.165
907.66
907.129
906.572
905.987
905.373
904.729
904.054
903.347
902.606
901.831
901.02
900.172
899.286
898.36
897.394
896.385
895.333
894.236
893.093
891.903
890.663
889.372
888.029
886.633
885.181
883.672
882.104
880.476
878.785
877.031
875.21
873.322
871.363
869.333
867.228
865.047
862.788
860.447
858.022
855.511
852.911
850.219
847.432
844.546
841.56
838.468
835.268
831.955
828.526
824.977
821.302
817.497
813.557
809.476
805.25
800.872
796.336
791.635
786.762
781.71
776.471
771.036
765.397
759.545
753.469
747.159
740.605
733.794
726.715
719.366
711.795
703.835
695.551
686.927
677.948
668.596
658.854
648.705
638.13
627.112
615.633
603.674
591.219
578.25
564.754
550.717
536.129
520.983
505.275
489.01
472.194
454.846
436.989
418.662
399.91
380.798
361.402
341.822
322.177
302.612
)
;

boundaryField
{
    fixedWall
    {
        type            fixedValue;
        value           uniform 293;
    }
    outlet
    {
        type            inletOutlet;
        inletValue      uniform 293;
        value           uniform 293;
    }
    defaultFaces
    {
        type            empty;
    }
}


// ************************************************************************* //
