/*--------------------------------*- C++ -*----------------------------------*\
| =========                 |                                                 |
| \\      /  F ield         | OpenFOAM: The Open Source CFD Toolbox           |
|  \\    /   O peration     | Version:  2406                                  |
|   \\  /    A nd           | Website:  www.openfoam.com                      |
|    \\/     M anipulation  |                                                 |
\*---------------------------------------------------------------------------*/
FoamFile
{
    version     2.0;
    format      ascii;
    arch        "LSB;label=32;scalar=64";
    class       volVectorField;
    location    "10.1";
    object      U;
}
// * * * * * * * * * * * * * * * * * * * * * * * * * * * * * * * * * * * * * //

dimensions      [0 1 -1 0 0 0 0];

internalField   nonuniform List<vector> 
1000
(
(-9.79171e-07 0 0)
(-4.62978e-06 0 0)
(-1.18139e-05 0 0)
(-2.16941e-05 0 0)
(-3.36391e-05 0 0)
(-4.72688e-05 0 0)
(-6.23206e-05 0 0)
(-7.85801e-05 0 0)
(-9.5867e-05 0 0)
(-0.000114032 0 0)
(-0.00013295 0 0)
(-0.000152511 0 0)
(-0.000172626 0 0)
(-0.000193215 0 0)
(-0.000214209 0 0)
(-0.000235547 0 0)
(-0.000257176 0 0)
(-0.000279047 0 0)
(-0.000301119 0 0)
(-0.000323352 0 0)
(-0.000345713 0 0)
(-0.000368169 0 0)
(-0.000390693 0 0)
(-0.000413258 0 0)
(-0.000435841 0 0)
(-0.000458419 0 0)
(-0.000480973 0 0)
(-0.000503484 0 0)
(-0.000525935 0 0)
(-0.00054831 0 0)
(-0.000570593 0 0)
(-0.000592773 0 0)
(-0.000614835 0 0)
(-0.000636768 0 0)
(-0.000658561 0 0)
(-0.000680205 0 0)
(-0.000701688 0 0)
(-0.000723002 0 0)
(-0.000744139 0 0)
(-0.000765091 0 0)
(-0.000785851 0 0)
(-0.000806413 0 0)
(-0.00082677 0 0)
(-0.000846915 0 0)
(-0.000866846 0 0)
(-0.000886554 0 0)
(-0.000906038 0 0)
(-0.000925292 0 0)
(-0.000944312 0 0)
(-0.000963096 0 0)
(-0.000981639 0 0)
(-0.000999939 0 0)
(-0.00101799 0 0)
(-0.0010358 0 0)
(-0.00105336 0 0)
(-0.00107066 0 0)
(-0.00108771 0 0)
(-0.00110451 0 0)
(-0.00112105 0 0)
(-0.00113733 0 0)
(-0.00115336 0 0)
(-0.00116912 0 0)
(-0.00118463 0 0)
(-0.00119989 0 0)
(-0.00121488 0 0)
(-0.00122962 0 0)
(-0.00124409 0 0)
(-0.00125831 0 0)
(-0.00127228 0 0)
(-0.00128599 0 0)
(-0.00129944 0 0)
(-0.00131264 0 0)
(-0.00132559 0 0)
(-0.00133829 0 0)
(-0.00135074 0 0)
(-0.00136295 0 0)
(-0.0013749 0 0)
(-0.00138662 0 0)
(-0.00139809 0 0)
(-0.00140932 0 0)
(-0.00142031 0 0)
(-0.00143107 0 0)
(-0.00144159 0 0)
(-0.00145189 0 0)
(-0.00146195 0 0)
(-0.00147179 0 0)
(-0.00148141 0 0)
(-0.0014908 0 0)
(-0.00149998 0 0)
(-0.00150894 0 0)
(-0.00151769 0 0)
(-0.00152623 0 0)
(-0.00153456 0 0)
(-0.00154269 0 0)
(-0.00155061 0 0)
(-0.00155834 0 0)
(-0.00156587 0 0)
(-0.00157321 0 0)
(-0.00158037 0 0)
(-0.00158733 0 0)
(-0.00159411 0 0)
(-0.00160072 0 0)
(-0.00160714 0 0)
(-0.00161339 0 0)
(-0.00161947 0 0)
(-0.00162539 0 0)
(-0.00163114 0 0)
(-0.00163672 0 0)
(-0.00164215 0 0)
(-0.00164743 0 0)
(-0.00165255 0 0)
(-0.00165752 0 0)
(-0.00166235 0 0)
(-0.00166704 0 0)
(-0.00167158 0 0)
(-0.00167599 0 0)
(-0.00168026 0 0)
(-0.00168441 0 0)
(-0.00168842 0 0)
(-0.00169231 0 0)
(-0.00169608 0 0)
(-0.00169973 0 0)
(-0.00170326 0 0)
(-0.00170668 0 0)
(-0.00170999 0 0)
(-0.00171319 0 0)
(-0.00171629 0 0)
(-0.00171928 0 0)
(-0.00172217 0 0)
(-0.00172497 0 0)
(-0.00172766 0 0)
(-0.00173027 0 0)
(-0.00173279 0 0)
(-0.00173522 0 0)
(-0.00173757 0 0)
(-0.00173983 0 0)
(-0.00174201 0 0)
(-0.00174412 0 0)
(-0.00174614 0 0)
(-0.0017481 0 0)
(-0.00174998 0 0)
(-0.0017518 0 0)
(-0.00175355 0 0)
(-0.00175523 0 0)
(-0.00175685 0 0)
(-0.00175841 0 0)
(-0.00175991 0 0)
(-0.00176135 0 0)
(-0.00176274 0 0)
(-0.00176407 0 0)
(-0.00176535 0 0)
(-0.00176658 0 0)
(-0.00176776 0 0)
(-0.00176889 0 0)
(-0.00176997 0 0)
(-0.00177101 0 0)
(-0.001772 0 0)
(-0.00177296 0 0)
(-0.00177388 0 0)
(-0.00177477 0 0)
(-0.00177562 0 0)
(-0.00177643 0 0)
(-0.0017772 0 0)
(-0.00177794 0 0)
(-0.00177865 0 0)
(-0.00177934 0 0)
(-0.00177999 0 0)
(-0.00178061 0 0)
(-0.00178121 0 0)
(-0.00178178 0 0)
(-0.00178233 0 0)
(-0.00178285 0 0)
(-0.00178335 0 0)
(-0.00178382 0 0)
(-0.00178428 0 0)
(-0.00178471 0 0)
(-0.00178512 0 0)
(-0.00178552 0 0)
(-0.00178589 0 0)
(-0.00178625 0 0)
(-0.00178659 0 0)
(-0.00178692 0 0)
(-0.00178723 0 0)
(-0.00178752 0 0)
(-0.0017878 0 0)
(-0.00178807 0 0)
(-0.00178833 0 0)
(-0.00178857 0 0)
(-0.0017888 0 0)
(-0.00178902 0 0)
(-0.00178923 0 0)
(-0.00178942 0 0)
(-0.00178961 0 0)
(-0.00178979 0 0)
(-0.00178996 0 0)
(-0.00179012 0 0)
(-0.00179027 0 0)
(-0.00179042 0 0)
(-0.00179055 0 0)
(-0.00179068 0 0)
(-0.00179081 0 0)
(-0.00179092 0 0)
(-0.00179104 0 0)
(-0.00179114 0 0)
(-0.00179124 0 0)
(-0.00179133 0 0)
(-0.00179142 0 0)
(-0.0017915 0 0)
(-0.00179158 0 0)
(-0.00179166 0 0)
(-0.00179173 0 0)
(-0.0017918 0 0)
(-0.00179186 0 0)
(-0.00179192 0 0)
(-0.00179197 0 0)
(-0.00179203 0 0)
(-0.00179208 0 0)
(-0.00179212 0 0)
(-0.00179217 0 0)
(-0.00179221 0 0)
(-0.00179225 0 0)
(-0.00179228 0 0)
(-0.00179232 0 0)
(-0.00179235 0 0)
(-0.00179238 0 0)
(-0.00179241 0 0)
(-0.00179243 0 0)
(-0.00179246 0 0)
(-0.00179248 0 0)
(-0.0017925 0 0)
(-0.00179252 0 0)
(-0.00179254 0 0)
(-0.00179256 0 0)
(-0.00179258 0 0)
(-0.00179259 0 0)
(-0.00179261 0 0)
(-0.00179262 0 0)
(-0.00179263 0 0)
(-0.00179264 0 0)
(-0.00179265 0 0)
(-0.00179266 0 0)
(-0.00179267 0 0)
(-0.00179268 0 0)
(-0.00179268 0 0)
(-0.00179269 0 0)
(-0.0017927 0 0)
(-0.0017927 0 0)
(-0.00179271 0 0)
(-0.00179271 0 0)
(-0.00179272 0 0)
(-0.00179272 0 0)
(-0.00179272 0 0)
(-0.00179272 0 0)
(-0.00179273 0 0)
(-0.00179273 0 0)
(-0.00179273 0 0)
(-0.00179273 0 0)
(-0.00179273 0 0)
(-0.00179273 0 0)
(-0.00179273 0 0)
(-0.00179273 0 0)
(-0.00179273 0 0)
(-0.00179273 0 0)
(-0.00179273 0 0)
(-0.00179273 0 0)
(-0.00179273 0 0)
(-0.00179273 0 0)
(-0.00179273 0 0)
(-0.00179272 0 0)
(-0.00179273 0 0)
(-0.00179272 0 0)
(-0.00179272 0 0)
(-0.00179272 0 0)
(-0.00179271 0 0)
(-0.00179272 0 0)
(-0.00179271 0 0)
(-0.00179271 0 0)
(-0.00179271 0 0)
(-0.00179271 0 0)
(-0.0017927 0 0)
(-0.0017927 0 0)
(-0.0017927 0 0)
(-0.00179269 0 0)
(-0.00179269 0 0)
(-0.00179269 0 0)
(-0.00179269 0 0)
(-0.00179269 0 0)
(-0.00179268 0 0)
(-0.00179268 0 0)
(-0.00179268 0 0)
(-0.00179267 0 0)
(-0.00179268 0 0)
(-0.00179267 0 0)
(-0.00179267 0 0)
(-0.00179266 0 0)
(-0.00179266 0 0)
(-0.00179266 0 0)
(-0.00179265 0 0)
(-0.00179265 0 0)
(-0.00179265 0 0)
(-0.00179265 0 0)
(-0.00179265 0 0)
(-0.00179264 0 0)
(-0.00179264 0 0)
(-0.00179264 0 0)
(-0.00179264 0 0)
(-0.00179263 0 0)
(-0.00179263 0 0)
(-0.00179263 0 0)
(-0.00179262 0 0)
(-0.00179263 0 0)
(-0.00179262 0 0)
(-0.00179262 0 0)
(-0.00179262 0 0)
(-0.00179261 0 0)
(-0.00179262 0 0)
(-0.00179261 0 0)
(-0.00179261 0 0)
(-0.00179261 0 0)
(-0.00179261 0 0)
(-0.0017926 0 0)
(-0.0017926 0 0)
(-0.0017926 0 0)
(-0.0017926 0 0)
(-0.0017926 0 0)
(-0.00179259 0 0)
(-0.0017926 0 0)
(-0.00179259 0 0)
(-0.00179259 0 0)
(-0.00179259 0 0)
(-0.00179259 0 0)
(-0.00179259 0 0)
(-0.00179259 0 0)
(-0.00179259 0 0)
(-0.00179258 0 0)
(-0.00179259 0 0)
(-0.00179258 0 0)
(-0.00179259 0 0)
(-0.00179258 0 0)
(-0.00179258 0 0)
(-0.00179258 0 0)
(-0.00179258 0 0)
(-0.00179258 0 0)
(-0.00179258 0 0)
(-0.00179258 0 0)
(-0.00179258 0 0)
(-0.00179258 0 0)
(-0.00179258 0 0)
(-0.00179258 0 0)
(-0.00179258 0 0)
(-0.00179258 0 0)
(-0.00179258 0 0)
(-0.00179258 0 0)
(-0.00179258 0 0)
(-0.00179258 0 0)
(-0.00179258 0 0)
(-0.00179258 0 0)
(-0.00179258 0 0)
(-0.00179258 0 0)
(-0.00179258 0 0)
(-0.00179258 0 0)
(-0.00179258 0 0)
(-0.00179258 0 0)
(-0.00179258 0 0)
(-0.00179258 0 0)
(-0.00179258 0 0)
(-0.00179258 0 0)
(-0.00179258 0 0)
(-0.00179258 0 0)
(-0.00179259 0 0)
(-0.00179258 0 0)
(-0.00179259 0 0)
(-0.00179259 0 0)
(-0.00179259 0 0)
(-0.00179259 0 0)
(-0.00179259 0 0)
(-0.00179259 0 0)
(-0.00179259 0 0)
(-0.00179259 0 0)
(-0.00179259 0 0)
(-0.00179259 0 0)
(-0.00179259 0 0)
(-0.00179259 0 0)
(-0.00179259 0 0)
(-0.0017926 0 0)
(-0.0017926 0 0)
(-0.0017926 0 0)
(-0.0017926 0 0)
(-0.0017926 0 0)
(-0.0017926 0 0)
(-0.0017926 0 0)
(-0.0017926 0 0)
(-0.0017926 0 0)
(-0.0017926 0 0)
(-0.0017926 0 0)
(-0.0017926 0 0)
(-0.00179261 0 0)
(-0.0017926 0 0)
(-0.00179261 0 0)
(-0.00179261 0 0)
(-0.00179261 0 0)
(-0.00179261 0 0)
(-0.00179261 0 0)
(-0.00179261 0 0)
(-0.00179261 0 0)
(-0.00179261 0 0)
(-0.00179261 0 0)
(-0.00179261 0 0)
(-0.00179261 0 0)
(-0.00179261 0 0)
(-0.00179261 0 0)
(-0.00179261 0 0)
(-0.00179261 0 0)
(-0.00179261 0 0)
(-0.00179262 0 0)
(-0.00179262 0 0)
(-0.00179262 0 0)
(-0.00179262 0 0)
(-0.00179262 0 0)
(-0.00179262 0 0)
(-0.00179262 0 0)
(-0.00179262 0 0)
(-0.00179262 0 0)
(-0.00179262 0 0)
(-0.00179262 0 0)
(-0.00179262 0 0)
(-0.00179262 0 0)
(-0.00179262 0 0)
(-0.00179262 0 0)
(-0.00179262 0 0)
(-0.00179262 0 0)
(-0.00179262 0 0)
(-0.00179262 0 0)
(-0.00179262 0 0)
(-0.00179262 0 0)
(-0.00179262 0 0)
(-0.00179262 0 0)
(-0.00179262 0 0)
(-0.00179262 0 0)
(-0.00179262 0 0)
(-0.00179262 0 0)
(-0.00179262 0 0)
(-0.00179262 0 0)
(-0.00179262 0 0)
(-0.00179262 0 0)
(-0.00179262 0 0)
(-0.00179262 0 0)
(-0.00179262 0 0)
(-0.00179262 0 0)
(-0.00179262 0 0)
(-0.00179262 0 0)
(-0.00179262 0 0)
(-0.00179262 0 0)
(-0.00179262 0 0)
(-0.00179262 0 0)
(-0.00179262 0 0)
(-0.00179262 0 0)
(-0.00179262 0 0)
(-0.00179262 0 0)
(-0.00179262 0 0)
(-0.00179261 0 0)
(-0.00179262 0 0)
(-0.00179261 0 0)
(-0.00179262 0 0)
(-0.00179261 0 0)
(-0.00179262 0 0)
(-0.00179262 0 0)
(-0.00179261 0 0)
(-0.00179262 0 0)
(-0.00179261 0 0)
(-0.00179262 0 0)
(-0.00179261 0 0)
(-0.00179262 0 0)
(-0.00179261 0 0)
(-0.00179261 0 0)
(-0.00179261 0 0)
(-0.00179261 0 0)
(-0.00179262 0 0)
(-0.00179261 0 0)
(-0.00179262 0 0)
(-0.00179261 0 0)
(-0.00179262 0 0)
(-0.00179262 0 0)
(-0.00179261 0 0)
(-0.00179262 0 0)
(-0.00179261 0 0)
(-0.00179262 0 0)
(-0.00179261 0 0)
(-0.00179261 0 0)
(-0.00179261 0 0)
(-0.00179261 0 0)
(-0.00179262 0 0)
(-0.00179261 0 0)
(-0.00179262 0 0)
(-0.00179261 0 0)
(-0.00179261 0 0)
(-0.00179261 0 0)
(-0.00179261 0 0)
(-0.00179262 0 0)
(-0.00179261 0 0)
(-0.00179261 0 0)
(-0.00179261 0 0)
(-0.00179262 0 0)
(-0.00179261 0 0)
(-0.00179261 0 0)
(-0.00179261 0 0)
(-0.00179261 0 0)
(-0.00179261 0 0)
(-0.00179261 0 0)
(-0.00179261 0 0)
(-0.00179261 0 0)
(-0.00179261 0 0)
(-0.00179261 0 0)
(-0.00179261 0 0)
(-0.00179261 0 0)
(-0.00179261 0 0)
(-0.00179261 0 0)
(-0.00179261 0 0)
(-0.00179261 0 0)
(-0.00179262 0 0)
(-0.00179261 0 0)
(-0.00179261 0 0)
(-0.00179261 0 0)
(-0.00179261 0 0)
(-0.00179262 0 0)
(-0.00179261 0 0)
(-0.00179261 0 0)
(-0.00179261 0 0)
(-0.00179261 0 0)
(-0.00179261 0 0)
(-0.00179261 0 0)
(-0.00179261 0 0)
(-0.00179261 0 0)
(-0.00179261 0 0)
(-0.00179261 0 0)
(-0.00179261 0 0)
(-0.00179261 0 0)
(-0.00179261 0 0)
(-0.00179261 0 0)
(-0.00179261 0 0)
(-0.00179261 0 0)
(-0.00179261 0 0)
(-0.0017926 0 0)
(-0.00179261 0 0)
(-0.0017926 0 0)
(-0.00179261 0 0)
(-0.00179261 0 0)
(-0.0017926 0 0)
(-0.00179261 0 0)
(-0.0017926 0 0)
(-0.0017926 0 0)
(-0.0017926 0 0)
(-0.0017926 0 0)
(-0.0017926 0 0)
(-0.0017926 0 0)
(-0.0017926 0 0)
(-0.0017926 0 0)
(-0.0017926 0 0)
(-0.0017926 0 0)
(-0.0017926 0 0)
(-0.00179259 0 0)
(-0.0017926 0 0)
(-0.0017926 0 0)
(-0.00179259 0 0)
(-0.0017926 0 0)
(-0.00179259 0 0)
(-0.00179259 0 0)
(-0.00179259 0 0)
(-0.00179259 0 0)
(-0.00179259 0 0)
(-0.00179259 0 0)
(-0.00179259 0 0)
(-0.00179259 0 0)
(-0.00179259 0 0)
(-0.00179259 0 0)
(-0.00179259 0 0)
(-0.00179259 0 0)
(-0.00179259 0 0)
(-0.00179259 0 0)
(-0.00179259 0 0)
(-0.00179259 0 0)
(-0.00179259 0 0)
(-0.00179259 0 0)
(-0.00179259 0 0)
(-0.00179258 0 0)
(-0.00179259 0 0)
(-0.00179259 0 0)
(-0.00179258 0 0)
(-0.00179259 0 0)
(-0.00179258 0 0)
(-0.00179259 0 0)
(-0.00179258 0 0)
(-0.00179259 0 0)
(-0.00179258 0 0)
(-0.00179259 0 0)
(-0.00179259 0 0)
(-0.00179259 0 0)
(-0.00179259 0 0)
(-0.00179258 0 0)
(-0.00179259 0 0)
(-0.00179259 0 0)
(-0.00179259 0 0)
(-0.00179259 0 0)
(-0.00179259 0 0)
(-0.00179259 0 0)
(-0.00179259 0 0)
(-0.00179259 0 0)
(-0.00179259 0 0)
(-0.00179259 0 0)
(-0.00179259 0 0)
(-0.00179259 0 0)
(-0.00179259 0 0)
(-0.00179259 0 0)
(-0.00179259 0 0)
(-0.00179259 0 0)
(-0.00179259 0 0)
(-0.00179259 0 0)
(-0.00179259 0 0)
(-0.00179259 0 0)
(-0.00179259 0 0)
(-0.00179259 0 0)
(-0.00179259 0 0)
(-0.00179259 0 0)
(-0.00179259 0 0)
(-0.00179259 0 0)
(-0.00179259 0 0)
(-0.00179259 0 0)
(-0.00179259 0 0)
(-0.00179259 0 0)
(-0.0017926 0 0)
(-0.00179259 0 0)
(-0.0017926 0 0)
(-0.0017926 0 0)
(-0.0017926 0 0)
(-0.0017926 0 0)
(-0.0017926 0 0)
(-0.0017926 0 0)
(-0.0017926 0 0)
(-0.0017926 0 0)
(-0.0017926 0 0)
(-0.0017926 0 0)
(-0.0017926 0 0)
(-0.0017926 0 0)
(-0.0017926 0 0)
(-0.0017926 0 0)
(-0.0017926 0 0)
(-0.0017926 0 0)
(-0.0017926 0 0)
(-0.0017926 0 0)
(-0.0017926 0 0)
(-0.0017926 0 0)
(-0.0017926 0 0)
(-0.0017926 0 0)
(-0.0017926 0 0)
(-0.0017926 0 0)
(-0.0017926 0 0)
(-0.0017926 0 0)
(-0.00179259 0 0)
(-0.0017926 0 0)
(-0.00179259 0 0)
(-0.0017926 0 0)
(-0.00179259 0 0)
(-0.00179259 0 0)
(-0.00179259 0 0)
(-0.00179259 0 0)
(-0.00179259 0 0)
(-0.00179259 0 0)
(-0.00179259 0 0)
(-0.00179259 0 0)
(-0.00179259 0 0)
(-0.00179259 0 0)
(-0.00179259 0 0)
(-0.00179258 0 0)
(-0.00179259 0 0)
(-0.00179259 0 0)
(-0.00179258 0 0)
(-0.00179259 0 0)
(-0.00179258 0 0)
(-0.00179258 0 0)
(-0.00179258 0 0)
(-0.00179258 0 0)
(-0.00179258 0 0)
(-0.00179257 0 0)
(-0.00179258 0 0)
(-0.00179257 0 0)
(-0.00179257 0 0)
(-0.00179257 0 0)
(-0.00179257 0 0)
(-0.00179257 0 0)
(-0.00179256 0 0)
(-0.00179257 0 0)
(-0.00179256 0 0)
(-0.00179256 0 0)
(-0.00179256 0 0)
(-0.00179256 0 0)
(-0.00179256 0 0)
(-0.00179256 0 0)
(-0.00179256 0 0)
(-0.00179256 0 0)
(-0.00179255 0 0)
(-0.00179256 0 0)
(-0.00179255 0 0)
(-0.00179255 0 0)
(-0.00179255 0 0)
(-0.00179255 0 0)
(-0.00179255 0 0)
(-0.00179255 0 0)
(-0.00179255 0 0)
(-0.00179254 0 0)
(-0.00179255 0 0)
(-0.00179254 0 0)
(-0.00179254 0 0)
(-0.00179254 0 0)
(-0.00179254 0 0)
(-0.00179254 0 0)
(-0.00179254 0 0)
(-0.00179254 0 0)
(-0.00179254 0 0)
(-0.00179254 0 0)
(-0.00179253 0 0)
(-0.00179254 0 0)
(-0.00179254 0 0)
(-0.00179253 0 0)
(-0.00179254 0 0)
(-0.00179253 0 0)
(-0.00179254 0 0)
(-0.00179253 0 0)
(-0.00179254 0 0)
(-0.00179253 0 0)
(-0.00179254 0 0)
(-0.00179254 0 0)
(-0.00179254 0 0)
(-0.00179254 0 0)
(-0.00179254 0 0)
(-0.00179254 0 0)
(-0.00179254 0 0)
(-0.00179254 0 0)
(-0.00179254 0 0)
(-0.00179254 0 0)
(-0.00179254 0 0)
(-0.00179254 0 0)
(-0.00179254 0 0)
(-0.00179255 0 0)
(-0.00179254 0 0)
(-0.00179255 0 0)
(-0.00179255 0 0)
(-0.00179255 0 0)
(-0.00179255 0 0)
(-0.00179255 0 0)
(-0.00179255 0 0)
(-0.00179256 0 0)
(-0.00179255 0 0)
(-0.00179256 0 0)
(-0.00179256 0 0)
(-0.00179256 0 0)
(-0.00179256 0 0)
(-0.00179256 0 0)
(-0.00179256 0 0)
(-0.00179256 0 0)
(-0.00179257 0 0)
(-0.00179257 0 0)
(-0.00179257 0 0)
(-0.00179257 0 0)
(-0.00179257 0 0)
(-0.00179257 0 0)
(-0.00179258 0 0)
(-0.00179258 0 0)
(-0.00179258 0 0)
(-0.00179258 0 0)
(-0.00179258 0 0)
(-0.00179258 0 0)
(-0.00179258 0 0)
(-0.00179259 0 0)
(-0.00179259 0 0)
(-0.00179259 0 0)
(-0.00179259 0 0)
(-0.00179259 0 0)
(-0.00179259 0 0)
(-0.00179259 0 0)
(-0.00179259 0 0)
(-0.0017926 0 0)
(-0.0017926 0 0)
(-0.0017926 0 0)
(-0.0017926 0 0)
(-0.0017926 0 0)
(-0.0017926 0 0)
(-0.0017926 0 0)
(-0.0017926 0 0)
(-0.00179261 0 0)
(-0.00179261 0 0)
(-0.00179261 0 0)
(-0.00179261 0 0)
(-0.00179261 0 0)
(-0.00179262 0 0)
(-0.00179262 0 0)
(-0.00179262 0 0)
(-0.00179262 0 0)
(-0.00179263 0 0)
(-0.00179263 0 0)
(-0.00179263 0 0)
(-0.00179264 0 0)
(-0.00179264 0 0)
(-0.00179265 0 0)
(-0.00179265 0 0)
(-0.00179266 0 0)
(-0.00179267 0 0)
(-0.00179268 0 0)
(-0.00179268 0 0)
(-0.00179269 0 0)
(-0.00179271 0 0)
(-0.00179272 0 0)
(-0.00179273 0 0)
(-0.00179275 0 0)
(-0.00179276 0 0)
(-0.00179278 0 0)
(-0.0017928 0 0)
(-0.00179282 0 0)
(-0.00179285 0 0)
(-0.00179288 0 0)
(-0.00179291 0 0)
(-0.00179294 0 0)
(-0.00179297 0 0)
(-0.00179301 0 0)
(-0.00179306 0 0)
(-0.0017931 0 0)
(-0.00179316 0 0)
(-0.00179321 0 0)
(-0.00179327 0 0)
(-0.00179334 0 0)
(-0.00179342 0 0)
(-0.0017935 0 0)
(-0.00179358 0 0)
(-0.00179368 0 0)
(-0.00179378 0 0)
(-0.0017939 0 0)
(-0.00179402 0 0)
(-0.00179415 0 0)
(-0.0017943 0 0)
(-0.00179446 0 0)
(-0.00179463 0 0)
(-0.00179481 0 0)
(-0.00179501 0 0)
(-0.00179523 0 0)
(-0.00179546 0 0)
(-0.00179572 0 0)
(-0.00179599 0 0)
(-0.00179629 0 0)
(-0.0017966 0 0)
(-0.00179695 0 0)
(-0.00179732 0 0)
(-0.00179772 0 0)
(-0.00179815 0 0)
(-0.00179862 0 0)
(-0.00179911 0 0)
(-0.00179965 0 0)
(-0.00180023 0 0)
(-0.00180084 0 0)
(-0.00180151 0 0)
(-0.00180222 0 0)
(-0.00180298 0 0)
(-0.0018038 0 0)
(-0.00180468 0 0)
(-0.00180561 0 0)
(-0.00180661 0 0)
(-0.00180769 0 0)
(-0.00180883 0 0)
(-0.00181005 0 0)
(-0.00181135 0 0)
(-0.00181274 0 0)
(-0.00181422 0 0)
(-0.0018158 0 0)
(-0.00181748 0 0)
(-0.00181926 0 0)
(-0.00182116 0 0)
(-0.00182318 0 0)
(-0.00182532 0 0)
(-0.0018276 0 0)
(-0.00183001 0 0)
(-0.00183256 0 0)
(-0.00183527 0 0)
(-0.00183814 0 0)
(-0.00184117 0 0)
(-0.00184438 0 0)
(-0.00184777 0 0)
(-0.00185135 0 0)
(-0.00185513 0 0)
(-0.00185912 0 0)
(-0.00186332 0 0)
(-0.00186775 0 0)
(-0.00187241 0 0)
(-0.00187731 0 0)
(-0.00188247 0 0)
(-0.00188789 0 0)
(-0.00189359 0 0)
(-0.00189957 0 0)
(-0.00190584 0 0)
(-0.00191241 0 0)
(-0.00191929 0 0)
(-0.0019265 0 0)
(-0.00193405 0 0)
(-0.00194193 0 0)
(-0.00195017 0 0)
(-0.00195878 0 0)
(-0.00196776 0 0)
(-0.00197713 0 0)
(-0.00198689 0 0)
(-0.00199705 0 0)
(-0.00200764 0 0)
(-0.00201864 0 0)
(-0.00203009 0 0)
(-0.00204197 0 0)
(-0.00205431 0 0)
(-0.00206711 0 0)
(-0.00208038 0 0)
(-0.00209412 0 0)
(-0.00210835 0 0)
(-0.00212307 0 0)
(-0.00213829 0 0)
(-0.00215401 0 0)
(-0.00217024 0 0)
(-0.00218698 0 0)
(-0.00220424 0 0)
(-0.00222202 0 0)
(-0.00224032 0 0)
(-0.00225914 0 0)
(-0.00227849 0 0)
(-0.00229835 0 0)
(-0.00231874 0 0)
(-0.00233964 0 0)
(-0.00236106 0 0)
(-0.00238298 0 0)
(-0.00240541 0 0)
(-0.00242833 0 0)
(-0.00245173 0 0)
(-0.00247561 0 0)
(-0.00249995 0 0)
(-0.00252473 0 0)
(-0.00254995 0 0)
(-0.00257558 0 0)
(-0.00260161 0 0)
(-0.00262802 0 0)
(-0.00265478 0 0)
(-0.00268186 0 0)
(-0.00270925 0 0)
(-0.00273691 0 0)
(-0.00276481 0 0)
(-0.00279291 0 0)
(-0.00282119 0 0)
(-0.00284961 0 0)
(-0.00287812 0 0)
(-0.00290667 0 0)
(-0.00293524 0 0)
(-0.00296376 0 0)
(-0.00299218 0 0)
(-0.00302045 0 0)
(-0.00304852 0 0)
(-0.00307631 0 0)
(-0.00310377 0 0)
(-0.00313083 0 0)
(-0.00315741 0 0)
(-0.00318343 0 0)
(-0.00320883 0 0)
(-0.0032335 0 0)
(-0.00325736 0 0)
(-0.00328032 0 0)
(-0.00330225 0 0)
(-0.00332308 0 0)
(-0.00334269 0 0)
(-0.00336093 0 0)
(-0.00337776 0 0)
(-0.00339299 0 0)
(-0.00340653 0 0)
(-0.00341831 0 0)
(-0.00342817 0 0)
(-0.00343593 0 0)
(-0.00344132 0 0)
(-0.00344402 0 0)
(-0.00344402 0 0)
(-0.00344101 0 0)
(-0.00343474 0 0)
(-0.00342507 0 0)
(-0.00341164 0 0)
(-0.00339425 0 0)
(-0.00337255 0 0)
(-0.00334627 0 0)
(-0.00331507 0 0)
(-0.00327859 0 0)
(-0.00323647 0 0)
(-0.00318833 0 0)
(-0.00313378 0 0)
(-0.00307243 0 0)
(-0.00300386 0 0)
(-0.00292767 0 0)
(-0.00284344 0 0)
(-0.00275098 0 0)
(-0.00265042 0 0)
(-0.00254148 0 0)
(-0.00241907 0 0)
(-0.00227211 0 0)
(-0.00212492 0 0)
)
;

boundaryField
{
    fixedWall
    {
        type            fixedValue;
        value           uniform (0 0 0);
    }
    outlet
    {
        type            pressureInletOutletVelocity;
        value           uniform (-0.00212492 0 0);
    }
    defaultFaces
    {
        type            empty;
    }
}


// ************************************************************************* //
