/*--------------------------------*- C++ -*----------------------------------*\
| =========                 |                                                 |
| \\      /  F ield         | OpenFOAM: The Open Source CFD Toolbox           |
|  \\    /   O peration     | Version:  2406                                  |
|   \\  /    A nd           | Website:  www.openfoam.com                      |
|    \\/     M anipulation  |                                                 |
\*---------------------------------------------------------------------------*/
FoamFile
{
    version     2.0;
    format      ascii;
    arch        "LSB;label=32;scalar=64";
    class       volScalarField;
    location    "10.9";
    object      O2;
}
// * * * * * * * * * * * * * * * * * * * * * * * * * * * * * * * * * * * * * //

dimensions      [0 0 0 0 0 0 0];

internalField   nonuniform List<scalar> 
1000
(
1.11755e-06
1.11576e-06
1.11249e-06
1.10798e-06
1.10241e-06
1.09592e-06
1.08861e-06
1.08058e-06
1.0719e-06
1.06264e-06
1.05287e-06
1.04262e-06
1.03195e-06
1.02089e-06
1.00948e-06
9.97756e-07
9.85747e-07
9.73479e-07
9.60979e-07
9.48271e-07
9.35377e-07
9.2232e-07
9.09118e-07
8.9579e-07
8.82356e-07
8.68832e-07
8.55235e-07
8.4158e-07
8.27884e-07
8.14161e-07
8.00426e-07
7.86693e-07
7.72976e-07
7.59288e-07
7.45643e-07
7.32052e-07
7.18529e-07
7.05086e-07
6.91733e-07
6.78483e-07
6.65347e-07
6.52335e-07
6.39456e-07
6.26722e-07
6.1414e-07
6.0172e-07
5.8947e-07
5.77398e-07
5.65511e-07
5.53815e-07
5.42316e-07
5.31021e-07
5.19934e-07
5.09059e-07
4.98401e-07
4.87964e-07
4.77748e-07
4.67758e-07
4.57995e-07
4.48461e-07
4.39155e-07
4.30079e-07
4.21233e-07
4.12616e-07
4.04227e-07
3.96065e-07
3.88129e-07
3.80417e-07
3.72926e-07
3.65655e-07
3.586e-07
3.51758e-07
3.45127e-07
3.38703e-07
3.32483e-07
3.26463e-07
3.20639e-07
3.15007e-07
3.09564e-07
3.04305e-07
2.99226e-07
2.94323e-07
2.89592e-07
2.85029e-07
2.80629e-07
2.76388e-07
2.72303e-07
2.68367e-07
2.64579e-07
2.60933e-07
2.57425e-07
2.54051e-07
2.50807e-07
2.4769e-07
2.44694e-07
2.41818e-07
2.39056e-07
2.36405e-07
2.33861e-07
2.31422e-07
2.29082e-07
2.2684e-07
2.24692e-07
2.22633e-07
2.20663e-07
2.18776e-07
2.16971e-07
2.15244e-07
2.13593e-07
2.12015e-07
2.10507e-07
2.09066e-07
2.0769e-07
2.06377e-07
2.05125e-07
2.0393e-07
2.02791e-07
2.01706e-07
2.00672e-07
1.99688e-07
1.98751e-07
1.97861e-07
1.97014e-07
1.96209e-07
1.95445e-07
1.9472e-07
1.94032e-07
1.93379e-07
1.92762e-07
1.92177e-07
1.91624e-07
1.91101e-07
1.90607e-07
1.9014e-07
1.89701e-07
1.89287e-07
1.88897e-07
1.88531e-07
1.88188e-07
1.87866e-07
1.87564e-07
1.87282e-07
1.87019e-07
1.86774e-07
1.86546e-07
1.86334e-07
1.86138e-07
1.85958e-07
1.85791e-07
1.85639e-07
1.85499e-07
1.85372e-07
1.85258e-07
1.85154e-07
1.85062e-07
1.8498e-07
1.84908e-07
1.84845e-07
1.84792e-07
1.84747e-07
1.84711e-07
1.84682e-07
1.84661e-07
1.84647e-07
1.8464e-07
1.8464e-07
1.84645e-07
1.84657e-07
1.84674e-07
1.84697e-07
1.84725e-07
1.84757e-07
1.84795e-07
1.84836e-07
1.84882e-07
1.84933e-07
1.84986e-07
1.85044e-07
1.85105e-07
1.85169e-07
1.85237e-07
1.85308e-07
1.85381e-07
1.85457e-07
1.85536e-07
1.85617e-07
1.857e-07
1.85786e-07
1.85874e-07
1.85964e-07
1.86056e-07
1.8615e-07
1.86245e-07
1.86342e-07
1.86441e-07
1.86541e-07
1.86643e-07
1.86746e-07
1.8685e-07
1.86955e-07
1.87062e-07
1.8717e-07
1.87279e-07
1.87389e-07
1.87499e-07
1.87611e-07
1.87724e-07
1.87837e-07
1.87952e-07
1.88067e-07
1.88183e-07
1.88299e-07
1.88416e-07
1.88534e-07
1.88652e-07
1.88771e-07
1.88891e-07
1.89011e-07
1.89132e-07
1.89253e-07
1.89374e-07
1.89496e-07
1.89618e-07
1.89741e-07
1.89864e-07
1.89988e-07
1.90112e-07
1.90236e-07
1.90361e-07
1.90486e-07
1.90611e-07
1.90736e-07
1.90862e-07
1.90988e-07
1.91115e-07
1.91241e-07
1.91368e-07
1.91495e-07
1.91623e-07
1.9175e-07
1.91878e-07
1.92006e-07
1.92135e-07
1.92263e-07
1.92392e-07
1.92521e-07
1.9265e-07
1.92779e-07
1.92909e-07
1.93038e-07
1.93168e-07
1.93298e-07
1.93428e-07
1.93558e-07
1.93689e-07
1.93819e-07
1.9395e-07
1.94081e-07
1.94213e-07
1.94344e-07
1.94476e-07
1.94607e-07
1.94739e-07
1.94871e-07
1.95003e-07
1.95135e-07
1.95268e-07
1.954e-07
1.95533e-07
1.95666e-07
1.95799e-07
1.95932e-07
1.96065e-07
1.96199e-07
1.96332e-07
1.96466e-07
1.966e-07
1.96734e-07
1.96868e-07
1.97002e-07
1.97137e-07
1.97271e-07
1.97406e-07
1.97541e-07
1.97676e-07
1.97811e-07
1.97946e-07
1.98082e-07
1.98217e-07
1.98353e-07
1.98489e-07
1.98625e-07
1.98761e-07
1.98897e-07
1.99034e-07
1.99171e-07
1.99307e-07
1.99444e-07
1.99581e-07
1.99718e-07
1.99855e-07
1.99992e-07
2.0013e-07
2.00268e-07
2.00406e-07
2.00544e-07
2.00682e-07
2.00821e-07
2.00959e-07
2.01098e-07
2.01237e-07
2.01376e-07
2.01515e-07
2.01655e-07
2.01794e-07
2.01934e-07
2.02074e-07
2.02214e-07
2.02354e-07
2.02495e-07
2.02635e-07
2.02776e-07
2.02917e-07
2.03058e-07
2.03199e-07
2.03341e-07
2.03482e-07
2.03624e-07
2.03766e-07
2.03908e-07
2.04051e-07
2.04193e-07
2.04336e-07
2.04479e-07
2.04622e-07
2.04765e-07
2.04908e-07
2.05052e-07
2.05196e-07
2.0534e-07
2.05484e-07
2.05629e-07
2.05773e-07
2.05918e-07
2.06063e-07
2.06208e-07
2.06354e-07
2.06499e-07
2.06645e-07
2.06791e-07
2.06937e-07
2.07084e-07
2.0723e-07
2.07377e-07
2.07524e-07
2.07671e-07
2.07819e-07
2.07966e-07
2.08114e-07
2.08262e-07
2.08411e-07
2.08559e-07
2.08708e-07
2.08857e-07
2.09006e-07
2.09155e-07
2.09305e-07
2.09455e-07
2.09605e-07
2.09755e-07
2.09906e-07
2.10056e-07
2.10207e-07
2.10358e-07
2.1051e-07
2.10661e-07
2.10813e-07
2.10965e-07
2.11118e-07
2.1127e-07
2.11423e-07
2.11576e-07
2.11729e-07
2.11883e-07
2.12036e-07
2.1219e-07
2.12344e-07
2.12499e-07
2.12653e-07
2.12808e-07
2.12963e-07
2.13119e-07
2.13274e-07
2.1343e-07
2.13586e-07
2.13742e-07
2.13899e-07
2.14055e-07
2.14212e-07
2.1437e-07
2.14527e-07
2.14685e-07
2.14843e-07
2.15001e-07
2.15159e-07
2.15318e-07
2.15477e-07
2.15636e-07
2.15795e-07
2.15955e-07
2.16115e-07
2.16275e-07
2.16435e-07
2.16596e-07
2.16757e-07
2.16918e-07
2.17079e-07
2.17241e-07
2.17402e-07
2.17564e-07
2.17727e-07
2.17889e-07
2.18052e-07
2.18215e-07
2.18378e-07
2.18542e-07
2.18705e-07
2.18869e-07
2.19034e-07
2.19198e-07
2.19363e-07
2.19528e-07
2.19693e-07
2.19859e-07
2.20024e-07
2.2019e-07
2.20356e-07
2.20523e-07
2.2069e-07
2.20857e-07
2.21024e-07
2.21191e-07
2.21359e-07
2.21527e-07
2.21695e-07
2.21864e-07
2.22032e-07
2.22201e-07
2.22371e-07
2.2254e-07
2.2271e-07
2.2288e-07
2.2305e-07
2.23221e-07
2.23391e-07
2.23562e-07
2.23734e-07
2.23905e-07
2.24077e-07
2.24249e-07
2.24422e-07
2.24594e-07
2.24767e-07
2.2494e-07
2.25114e-07
2.25287e-07
2.25461e-07
2.25635e-07
2.2581e-07
2.25985e-07
2.2616e-07
2.26335e-07
2.26511e-07
2.26686e-07
2.26862e-07
2.27039e-07
2.27216e-07
2.27392e-07
2.2757e-07
2.27747e-07
2.27925e-07
2.28103e-07
2.28281e-07
2.2846e-07
2.28639e-07
2.28818e-07
2.28997e-07
2.29177e-07
2.29357e-07
2.29537e-07
2.29718e-07
2.29899e-07
2.3008e-07
2.30261e-07
2.30443e-07
2.30625e-07
2.30808e-07
2.3099e-07
2.31173e-07
2.31356e-07
2.3154e-07
2.31724e-07
2.31908e-07
2.32092e-07
2.32277e-07
2.32462e-07
2.32647e-07
2.32832e-07
2.33018e-07
2.33204e-07
2.33391e-07
2.33578e-07
2.33765e-07
2.33952e-07
2.3414e-07
2.34328e-07
2.34516e-07
2.34704e-07
2.34893e-07
2.35083e-07
2.35272e-07
2.35462e-07
2.35652e-07
2.35842e-07
2.36033e-07
2.36224e-07
2.36415e-07
2.36607e-07
2.36799e-07
2.36991e-07
2.37184e-07
2.37377e-07
2.3757e-07
2.37763e-07
2.37957e-07
2.38151e-07
2.38346e-07
2.38541e-07
2.38736e-07
2.38931e-07
2.39127e-07
2.39323e-07
2.39519e-07
2.39716e-07
2.39913e-07
2.4011e-07
2.40308e-07
2.40506e-07
2.40704e-07
2.40903e-07
2.41102e-07
2.41301e-07
2.415e-07
2.417e-07
2.41901e-07
2.42101e-07
2.42302e-07
2.42503e-07
2.42705e-07
2.42907e-07
2.43109e-07
2.43311e-07
2.43514e-07
2.43717e-07
2.43921e-07
2.44125e-07
2.44329e-07
2.44533e-07
2.44738e-07
2.44944e-07
2.45149e-07
2.45355e-07
2.45561e-07
2.45768e-07
2.45975e-07
2.46182e-07
2.4639e-07
2.46598e-07
2.46806e-07
2.47014e-07
2.47223e-07
2.47433e-07
2.47643e-07
2.47853e-07
2.48063e-07
2.48274e-07
2.48485e-07
2.48696e-07
2.48908e-07
2.4912e-07
2.49333e-07
2.49546e-07
2.49759e-07
2.49973e-07
2.50187e-07
2.50401e-07
2.50616e-07
2.50831e-07
2.51047e-07
2.51262e-07
2.51479e-07
2.51695e-07
2.51912e-07
2.5213e-07
2.52348e-07
2.52566e-07
2.52784e-07
2.53003e-07
2.53222e-07
2.53442e-07
2.53662e-07
2.53883e-07
2.54104e-07
2.54325e-07
2.54546e-07
2.54769e-07
2.54991e-07
2.55214e-07
2.55437e-07
2.55661e-07
2.55885e-07
2.56109e-07
2.56333e-07
2.56557e-07
2.56783e-07
2.57009e-07
2.57235e-07
2.57462e-07
2.5769e-07
2.57917e-07
2.58146e-07
2.58374e-07
2.58603e-07
2.58832e-07
2.59062e-07
2.59292e-07
2.59523e-07
2.59754e-07
2.59985e-07
2.60217e-07
2.6045e-07
2.60682e-07
2.60916e-07
2.61149e-07
2.61383e-07
2.61617e-07
2.61852e-07
2.62088e-07
2.62323e-07
2.62559e-07
2.62796e-07
2.63033e-07
2.6327e-07
2.63508e-07
2.63746e-07
2.63985e-07
2.64224e-07
2.64464e-07
2.64704e-07
2.64944e-07
2.65185e-07
2.65427e-07
2.65668e-07
2.6591e-07
2.66153e-07
2.66396e-07
2.6664e-07
2.66884e-07
2.67128e-07
2.67373e-07
2.67618e-07
2.67864e-07
2.6811e-07
2.68356e-07
2.68603e-07
2.68851e-07
2.69097e-07
2.69345e-07
2.69594e-07
2.69843e-07
2.70093e-07
2.70343e-07
2.70593e-07
2.70844e-07
2.71095e-07
2.71347e-07
2.716e-07
2.71852e-07
2.72106e-07
2.72359e-07
2.72613e-07
2.72868e-07
2.73123e-07
2.73378e-07
2.73634e-07
2.73891e-07
2.74147e-07
2.74405e-07
2.74663e-07
2.74921e-07
2.75179e-07
2.75439e-07
2.75698e-07
2.75958e-07
2.76219e-07
2.7648e-07
2.76742e-07
2.77004e-07
2.77266e-07
2.77529e-07
2.77793e-07
2.78056e-07
2.78321e-07
2.78586e-07
2.78851e-07
2.79117e-07
2.79384e-07
2.79651e-07
2.79918e-07
2.80186e-07
2.80454e-07
2.80723e-07
2.80993e-07
2.81263e-07
2.81534e-07
2.81805e-07
2.82076e-07
2.82348e-07
2.82621e-07
2.82894e-07
2.83168e-07
2.83442e-07
2.83717e-07
2.83992e-07
2.84268e-07
2.84545e-07
2.84822e-07
2.851e-07
2.85378e-07
2.85656e-07
2.85936e-07
2.86216e-07
2.86496e-07
2.86777e-07
2.87059e-07
2.87341e-07
2.87622e-07
2.87906e-07
2.8819e-07
2.88474e-07
2.88759e-07
2.89043e-07
2.8933e-07
2.89616e-07
2.89904e-07
2.90192e-07
2.90481e-07
2.9077e-07
2.9106e-07
2.9135e-07
2.91641e-07
2.91933e-07
2.92225e-07
2.92518e-07
2.92812e-07
2.93106e-07
2.93401e-07
2.93696e-07
2.93992e-07
2.94289e-07
2.94586e-07
2.94884e-07
2.95183e-07
2.95482e-07
2.95782e-07
2.96083e-07
2.96384e-07
2.96686e-07
2.96988e-07
2.97291e-07
2.97595e-07
2.97899e-07
2.98204e-07
2.9851e-07
2.98816e-07
2.99123e-07
2.99431e-07
2.9974e-07
3.00049e-07
3.00358e-07
3.00669e-07
3.0098e-07
3.01292e-07
3.01605e-07
3.01918e-07
3.02232e-07
3.02547e-07
3.02862e-07
3.03179e-07
3.03496e-07
3.03814e-07
3.04133e-07
3.04452e-07
3.04773e-07
3.05094e-07
3.05417e-07
3.0574e-07
3.06064e-07
3.06389e-07
3.06715e-07
3.07043e-07
3.07371e-07
3.07701e-07
3.08032e-07
3.08364e-07
3.08697e-07
3.09032e-07
3.09368e-07
3.09706e-07
3.10045e-07
3.10386e-07
3.10729e-07
3.11074e-07
3.1142e-07
3.11769e-07
3.1212e-07
3.12474e-07
3.1283e-07
3.13188e-07
3.1355e-07
3.13915e-07
3.14282e-07
3.14654e-07
3.15029e-07
3.15408e-07
3.15791e-07
3.16179e-07
3.16571e-07
3.16969e-07
3.17372e-07
3.17782e-07
3.18197e-07
3.1862e-07
3.19049e-07
3.19487e-07
3.19932e-07
3.20387e-07
3.20851e-07
3.21326e-07
3.21812e-07
3.22309e-07
3.22819e-07
3.23342e-07
3.2388e-07
3.24433e-07
3.25003e-07
3.2559e-07
3.26196e-07
3.26822e-07
3.2747e-07
3.28141e-07
3.28836e-07
3.29558e-07
3.30308e-07
3.31087e-07
3.31898e-07
3.32744e-07
3.33625e-07
3.34546e-07
3.35507e-07
3.36512e-07
3.37563e-07
3.38665e-07
3.39818e-07
3.41028e-07
3.42298e-07
3.4363e-07
3.4503e-07
3.46501e-07
3.48048e-07
3.49674e-07
3.51386e-07
3.53188e-07
3.55085e-07
3.57082e-07
3.59187e-07
3.61404e-07
3.6374e-07
3.66203e-07
3.68798e-07
3.71534e-07
3.74417e-07
3.77456e-07
3.8066e-07
3.84037e-07
3.87595e-07
3.91345e-07
3.95297e-07
3.99459e-07
4.03843e-07
4.0846e-07
4.13321e-07
4.18437e-07
4.23821e-07
4.29484e-07
4.3544e-07
4.41701e-07
4.48281e-07
4.55193e-07
4.62451e-07
4.7007e-07
4.78063e-07
4.86445e-07
4.95231e-07
5.04435e-07
5.14073e-07
5.24158e-07
5.34706e-07
5.45731e-07
5.57247e-07
5.69268e-07
5.81807e-07
5.94877e-07
6.0849e-07
6.22657e-07
6.37388e-07
6.52691e-07
6.68575e-07
6.85045e-07
7.02105e-07
7.19757e-07
7.38001e-07
7.56834e-07
7.76251e-07
7.96241e-07
8.16794e-07
8.37893e-07
8.59519e-07
8.81646e-07
9.04247e-07
9.27287e-07
9.50727e-07
9.74522e-07
9.98622e-07
1.02297e-06
1.0475e-06
1.07215e-06
1.09684e-06
1.12149e-06
1.146e-06
1.17029e-06
1.19424e-06
1.21776e-06
1.24073e-06
1.26302e-06
1.28451e-06
1.30508e-06
1.32459e-06
1.3429e-06
1.35988e-06
1.37538e-06
1.38927e-06
1.4014e-06
1.41163e-06
1.41984e-06
1.42588e-06
1.42962e-06
1.43094e-06
1.42974e-06
1.4259e-06
1.41931e-06
1.40988e-06
1.39753e-06
1.38217e-06
1.36375e-06
1.34219e-06
1.31747e-06
1.28954e-06
1.25839e-06
1.224e-06
1.18639e-06
1.14557e-06
1.10159e-06
1.05448e-06
1.00434e-06
9.51248e-07
8.95325e-07
8.36713e-07
7.75585e-07
7.12144e-07
6.46631e-07
5.7933e-07
5.10572e-07
4.40744e-07
3.70296e-07
2.99749e-07
2.29707e-07
1.60862e-07
9.40071e-08
3.00372e-08
)
;

boundaryField
{
    fixedWall
    {
        type            zeroGradient;
    }
    outlet
    {
        type            inletOutlet;
        inletValue      uniform 0;
        value           uniform 0;
    }
    defaultFaces
    {
        type            empty;
    }
}


// ************************************************************************* //
