/*--------------------------------*- C++ -*----------------------------------*\
| =========                 |                                                 |
| \\      /  F ield         | OpenFOAM: The Open Source CFD Toolbox           |
|  \\    /   O peration     | Version:  2406                                  |
|   \\  /    A nd           | Website:  www.openfoam.com                      |
|    \\/     M anipulation  |                                                 |
\*---------------------------------------------------------------------------*/
FoamFile
{
    version     2.0;
    format      ascii;
    arch        "LSB;label=32;scalar=64";
    class       volScalarField;
    location    "10.9";
    object      Qdot;
}
// * * * * * * * * * * * * * * * * * * * * * * * * * * * * * * * * * * * * * //

dimensions      [1 -1 -3 0 0 0 0];

internalField   nonuniform List<scalar> 
1000
(
-1.06202e-18
-2.46501e-17
-3.17657e-16
-2.62163e-15
1.14133e-08
2.90634e-08
1.26411e-07
3.91077e-07
1.08604e-06
2.67333e-06
5.99026e-06
1.23958e-05
2.39226e-05
4.34946e-05
7.50482e-05
0.000123678
0.000195715
0.000298708
0.000441398
0.000633577
0.000885889
0.00120959
0.00161622
0.00211732
0.00272405
0.00344684
0.00429508
0.0052768
0.0063984
0.00766444
0.00907747
0.0106379
0.0123441
0.014192
0.0161758
0.0182875
0.0205172
0.0228536
0.025284
0.0277943
0.0303697
0.0329947
0.0356535
0.0383302
0.041009
0.0436743
0.0463115
0.0489063
0.0514455
0.0539169
0.0563096
0.0586135
0.0608203
0.0629224
0.0649139
0.0667899
0.0685469
0.0701825
0.0716953
0.0730851
0.0743525
0.075499
0.076527
0.0774394
0.0782399
0.0789324
0.0795215
0.0800119
0.0804089
0.0807177
0.0809438
0.0810925
0.0811693
0.0811799
0.0811294
0.0810232
0.0808665
0.0806641
0.0804209
0.0801413
0.0798299
0.0794906
0.0791273
0.0787438
0.0783435
0.0779294
0.0775047
0.0770719
0.0766337
0.0761924
0.0757499
0.0753084
0.0748694
0.0744345
0.0740051
0.0735825
0.0731677
0.0727617
0.0723654
0.0719793
0.0716042
0.0712405
0.0708886
0.0705489
0.0702216
0.0699069
0.0696049
0.0693156
0.0690392
0.0687754
0.0685243
0.0682857
0.0680594
0.0678454
0.0676434
0.0674531
0.0672743
0.0671068
0.0669503
0.0668045
0.0666691
0.0665438
0.0664283
0.0663223
0.0662255
0.0661376
0.0660582
0.0659872
0.0659241
0.0658687
0.0658206
0.0657797
0.0657455
0.0657179
0.0656965
0.0656811
0.0656714
0.0656672
0.0656682
0.0656742
0.065685
0.0657003
0.06572
0.0657437
0.0657714
0.0658028
0.0658377
0.065876
0.0659175
0.065962
0.0660094
0.0660594
0.0661121
0.0661672
0.0662246
0.0662842
0.0663458
0.0664094
0.0664749
0.0665419
0.0666105
0.0666807
0.0667526
0.0668255
0.0668998
0.0669753
0.0670519
0.06713
0.067209
0.0672889
0.0673697
0.0674514
0.0675338
0.067617
0.0677009
0.0677854
0.0678706
0.0679563
0.0680426
0.0681295
0.0682168
0.0683046
0.0683928
0.0684814
0.0685704
0.0686598
0.0687495
0.0688395
0.0689299
0.0690206
0.0691115
0.0692027
0.0692942
0.069386
0.0694779
0.0695701
0.0696625
0.0697552
0.069848
0.069941
0.0700342
0.0701276
0.0702212
0.070315
0.0704085
0.0705027
0.0705969
0.0706913
0.0707859
0.0708806
0.0709755
0.0710705
0.0711656
0.0712609
0.0713564
0.071452
0.0715478
0.0716437
0.0717398
0.071836
0.0719324
0.0720286
0.0721252
0.072222
0.072319
0.0724161
0.0725133
0.0726107
0.0727082
0.0728059
0.0729037
0.0730017
0.0730998
0.0731981
0.0732965
0.0733951
0.0734939
0.0735928
0.0736919
0.0737911
0.0738905
0.07399
0.0740897
0.0741896
0.0742896
0.0743898
0.0744901
0.0745907
0.0746913
0.0747922
0.0748931
0.0749938
0.0750952
0.0751968
0.0752986
0.0754005
0.0755026
0.0756049
0.0757074
0.07581
0.0759128
0.0760158
0.076119
0.0762223
0.0763259
0.0764291
0.0765331
0.0766371
0.0767414
0.0768458
0.0769504
0.0770552
0.0771601
0.0772653
0.0773706
0.0774761
0.0775818
0.0776877
0.0777938
0.0779001
0.0780065
0.0781132
0.0782201
0.0783271
0.0784343
0.0785418
0.0786494
0.0787572
0.0788653
0.0789735
0.0790819
0.0791906
0.0792994
0.0794084
0.0795177
0.0796271
0.0797367
0.0798466
0.0799567
0.0800668
0.0801766
0.0802873
0.0803983
0.0805094
0.0806208
0.080732
0.0808438
0.0809558
0.081068
0.0811804
0.081293
0.0814059
0.0815189
0.0816322
0.0817457
0.0818594
0.0819733
0.0820875
0.0822019
0.0823165
0.0824313
0.0825464
0.0826617
0.0827772
0.082893
0.0830089
0.0831252
0.0832416
0.0833583
0.0834752
0.0835924
0.0837098
0.0838274
0.0839452
0.0840633
0.0841817
0.0843003
0.0844191
0.0845382
0.0846576
0.0847771
0.084897
0.0850171
0.0851374
0.085258
0.0853788
0.0854999
0.0856212
0.0857428
0.0858647
0.0859868
0.0861091
0.0862318
0.0863547
0.0864778
0.0866012
0.0867249
0.0868488
0.0869731
0.0870975
0.0872223
0.0873473
0.0874726
0.0875981
0.087724
0.0878501
0.0879764
0.0881031
0.08823
0.0883572
0.0884847
0.0886125
0.0887405
0.0888688
0.0889975
0.0891263
0.0892555
0.089385
0.0895147
0.0896447
0.0897751
0.0899057
0.0900366
0.0901677
0.0902992
0.090431
0.090563
0.0906954
0.090828
0.090961
0.0910942
0.0912277
0.0913616
0.0914957
0.0916301
0.0917648
0.0918999
0.0920352
0.0921708
0.0923067
0.092443
0.0925795
0.0927163
0.0928535
0.0929909
0.0931287
0.0932667
0.0934051
0.0935438
0.0936828
0.0938221
0.0939617
0.0941016
0.0942418
0.0943824
0.0945232
0.0946644
0.0948059
0.0949477
0.0950899
0.0952323
0.0953751
0.0955181
0.0956615
0.0958053
0.0959493
0.0960937
0.0962384
0.0963834
0.0965287
0.0966744
0.0968204
0.0969667
0.0971134
0.0972604
0.0974077
0.0975553
0.0977033
0.0978516
0.0980002
0.0981492
0.0982985
0.0984482
0.0985982
0.0987485
0.0988992
0.0990502
0.0992016
0.0993533
0.0995053
0.0996577
0.0998105
0.0999636
0.100117
0.100271
0.100425
0.100579
0.100734
0.10089
0.101045
0.101201
0.101357
0.101514
0.101671
0.101828
0.101986
0.102144
0.102303
0.102461
0.102621
0.10278
0.10294
0.1031
0.103261
0.103422
0.103584
0.103745
0.103908
0.10407
0.104233
0.104397
0.10456
0.104724
0.104889
0.105054
0.105219
0.105385
0.105551
0.105717
0.105884
0.106051
0.106219
0.106387
0.106555
0.106724
0.106894
0.107063
0.107233
0.107404
0.107575
0.107746
0.107918
0.10809
0.108262
0.108435
0.108609
0.108782
0.108956
0.109131
0.109306
0.109482
0.109657
0.109834
0.11001
0.110188
0.110365
0.110543
0.110722
0.110901
0.11108
0.11126
0.11144
0.11162
0.111802
0.111983
0.112165
0.112347
0.11253
0.112714
0.112897
0.113081
0.113266
0.113451
0.113637
0.113823
0.114009
0.114196
0.114383
0.114571
0.11476
0.114948
0.115138
0.115327
0.115517
0.115708
0.115899
0.116091
0.116283
0.116475
0.116668
0.116862
0.117056
0.11725
0.117445
0.11764
0.117836
0.118032
0.118229
0.118427
0.118624
0.118823
0.119021
0.119221
0.119421
0.119621
0.119822
0.120023
0.120225
0.120427
0.12063
0.120833
0.121037
0.121241
0.121446
0.121651
0.121857
0.122064
0.122271
0.122478
0.122686
0.122895
0.123104
0.123313
0.123523
0.123734
0.123945
0.124157
0.124369
0.124582
0.124795
0.125009
0.125223
0.125438
0.125654
0.12587
0.126087
0.126304
0.126522
0.12674
0.126959
0.127178
0.127398
0.127619
0.12784
0.128062
0.128284
0.128507
0.128731
0.128955
0.12918
0.129405
0.129631
0.129857
0.130084
0.130312
0.13054
0.130769
0.130999
0.131229
0.13146
0.131691
0.131923
0.132155
0.132386
0.13262
0.132855
0.13309
0.133326
0.133562
0.133799
0.134037
0.134275
0.134514
0.134753
0.134994
0.135234
0.135476
0.135718
0.135961
0.136204
0.136448
0.136693
0.136939
0.137185
0.137432
0.137679
0.137927
0.138176
0.138425
0.138676
0.138926
0.139178
0.13943
0.139683
0.139937
0.140191
0.140446
0.140702
0.140958
0.141215
0.141473
0.141731
0.141991
0.142251
0.142511
0.142773
0.143035
0.143297
0.143561
0.143825
0.14409
0.144356
0.144622
0.144889
0.145157
0.145426
0.145694
0.145962
0.146233
0.146505
0.146777
0.14705
0.147324
0.147598
0.147874
0.14815
0.148426
0.148704
0.148982
0.149261
0.149541
0.149821
0.150103
0.150385
0.150668
0.150951
0.151236
0.151521
0.151807
0.152094
0.152382
0.15267
0.152959
0.153249
0.15354
0.153832
0.154124
0.154418
0.154712
0.155007
0.155302
0.155599
0.155897
0.156195
0.156494
0.156794
0.157095
0.157397
0.157699
0.158003
0.158307
0.158612
0.158918
0.159225
0.159533
0.159842
0.160151
0.160462
0.160773
0.161086
0.161399
0.161713
0.162028
0.162344
0.162661
0.162979
0.163298
0.163618
0.163939
0.164261
0.164583
0.164907
0.165232
0.165558
0.165884
0.166212
0.166539
0.166868
0.167199
0.16753
0.167863
0.168197
0.16853
0.168865
0.169202
0.169539
0.169878
0.170218
0.170558
0.1709
0.171243
0.171587
0.171932
0.172278
0.172625
0.172973
0.173322
0.173673
0.174024
0.174376
0.17473
0.175085
0.17544
0.175797
0.176155
0.176514
0.176874
0.177235
0.177598
0.177961
0.178325
0.178691
0.179058
0.179426
0.179795
0.180165
0.180536
0.180908
0.181282
0.181656
0.182032
0.182409
0.182787
0.183166
0.183546
0.183927
0.18431
0.184693
0.185078
0.185464
0.185851
0.186239
0.186628
0.187019
0.18741
0.187803
0.188197
0.188592
0.188988
0.189386
0.189784
0.190184
0.190585
0.190987
0.19139
0.191794
0.1922
0.192607
0.193015
0.193424
0.193835
0.194246
0.19466
0.195074
0.19549
0.195907
0.196325
0.196745
0.197166
0.197589
0.198014
0.19844
0.198868
0.199297
0.199729
0.200162
0.200597
0.201035
0.201475
0.201917
0.202361
0.202809
0.203259
0.203713
0.204169
0.20463
0.205094
0.205562
0.206035
0.206512
0.206995
0.207483
0.207977
0.208478
0.208986
0.209502
0.210026
0.210559
0.211101
0.211654
0.212219
0.212796
0.213386
0.213991
0.214612
0.215249
0.215905
0.21658
0.217277
0.217996
0.21874
0.219511
0.220311
0.221141
0.222004
0.222903
0.223839
0.224817
0.225838
0.226906
0.228023
0.229194
0.230422
0.23171
0.233062
0.234483
0.235977
0.237548
0.239201
0.24094
0.242772
0.244699
0.246729
0.248866
0.251116
0.253485
0.255978
0.258602
0.261361
0.264263
0.267312
0.270514
0.273876
0.277402
0.281097
0.284967
0.289015
0.293245
0.297661
0.302265
0.307059
0.312042
0.317214
0.322572
0.328114
0.333833
0.339722
0.345771
0.351968
0.358298
0.364742
0.37128
0.377886
0.384532
0.391185
0.397809
0.404361
0.410795
0.41706
0.423101
0.428857
0.434261
0.439244
0.443732
0.447646
0.450904
0.453424
0.455119
0.455903
0.455693
0.454405
0.451963
0.448293
0.443333
0.437028
0.42934
0.42024
0.40972
0.397791
0.384484
0.36985
0.353967
0.336934
0.318876
0.299939
0.280291
0.260117
0.239619
0.21901
0.198507
0.178332
0.158698
0.13981
0.121854
0.104994
0.0893675
0.0750864
0.0623362
0.0508878
0.0408747
0.0322658
0.0249978
0.01898
0.0140999
0.0102299
0.00723402
0.00497455
0.0033181
0.00214063
0.0013314
0.000795447
0.000454627
0.000247401
0.000127504
6.18553e-05
2.80493e-05
1.17919e-05
4.55306e-06
1.59741e-06
5.03152e-07
1.40187e-07
3.38579e-08
6.9617e-09
1.16445e-09
3.23423e-10
9.9648e-14
-2.44545e-18
1.08426e-10
0
0
)
;

boundaryField
{
    fixedWall
    {
        type            calculated;
        value           uniform 0;
    }
    outlet
    {
        type            calculated;
        value           uniform 0;
    }
    defaultFaces
    {
        type            empty;
    }
}


// ************************************************************************* //
