/*--------------------------------*- C++ -*----------------------------------*\
| =========                 |                                                 |
| \\      /  F ield         | OpenFOAM: The Open Source CFD Toolbox           |
|  \\    /   O peration     | Version:  2406                                  |
|   \\  /    A nd           | Website:  www.openfoam.com                      |
|    \\/     M anipulation  |                                                 |
\*---------------------------------------------------------------------------*/
FoamFile
{
    version     2.0;
    format      ascii;
    arch        "LSB;label=32;scalar=64";
    class       volScalarField;
    location    "10.9";
    object      T;
}
// * * * * * * * * * * * * * * * * * * * * * * * * * * * * * * * * * * * * * //

dimensions      [0 0 0 1 0 0 0];

internalField   nonuniform List<scalar> 
1000
(
305.302
328.031
349.12
368.824
387.338
404.812
421.366
437.1
452.093
466.416
480.126
493.272
505.899
518.043
529.738
541.013
551.895
562.407
572.569
582.401
591.919
601.14
610.078
618.746
627.156
635.319
643.245
650.944
658.425
665.696
672.765
679.639
686.325
692.828
699.157
705.315
711.308
717.142
722.821
728.35
733.734
738.975
744.08
749.051
753.891
758.606
763.197
767.668
772.022
776.263
780.393
784.415
788.332
792.146
795.86
799.476
802.997
806.425
809.762
813.011
816.173
819.251
822.246
825.161
827.998
830.758
833.443
836.055
838.596
841.067
843.47
845.806
848.078
850.287
852.433
854.52
856.547
858.517
860.431
862.29
864.096
865.85
867.552
869.205
870.81
872.367
873.879
875.345
876.768
878.148
879.486
880.783
882.041
883.261
884.443
885.588
886.698
887.773
888.814
889.822
890.798
891.743
892.658
893.543
894.399
895.227
896.028
896.803
897.552
898.275
898.975
899.651
900.304
900.935
901.544
902.132
902.7
903.248
903.777
904.287
904.779
905.254
905.711
906.152
906.577
906.987
907.382
907.762
908.128
908.48
908.819
909.146
909.46
909.762
910.053
910.332
910.601
910.859
911.108
911.346
911.575
911.795
912.006
912.209
912.403
912.59
912.769
912.941
913.105
913.263
913.414
913.559
913.698
913.831
913.958
914.08
914.197
914.308
914.415
914.517
914.615
914.708
914.797
914.882
914.963
915.041
915.115
915.186
915.253
915.318
915.379
915.438
915.494
915.547
915.598
915.646
915.692
915.736
915.778
915.818
915.856
915.891
915.926
915.958
915.989
916.018
916.046
916.072
916.097
916.121
916.143
916.165
916.185
916.204
916.222
916.239
916.256
916.271
916.286
916.299
916.312
916.324
916.336
916.347
916.357
916.367
916.376
916.384
916.393
916.4
916.407
916.414
916.42
916.426
916.432
916.437
916.442
916.446
916.45
916.454
916.458
916.462
916.465
916.468
916.471
916.473
916.475
916.478
916.48
916.482
916.483
916.485
916.486
916.488
916.489
916.49
916.491
916.492
916.493
916.493
916.494
916.495
916.495
916.496
916.496
916.496
916.497
916.497
916.497
916.497
916.497
916.497
916.497
916.497
916.497
916.497
916.497
916.497
916.497
916.497
916.497
916.497
916.497
916.497
916.496
916.496
916.496
916.496
916.496
916.495
916.495
916.495
916.495
916.495
916.495
916.494
916.494
916.494
916.494
916.494
916.494
916.493
916.493
916.493
916.493
916.493
916.493
916.493
916.493
916.492
916.492
916.492
916.492
916.492
916.492
916.492
916.492
916.492
916.492
916.492
916.492
916.492
916.492
916.492
916.492
916.492
916.492
916.492
916.492
916.492
916.492
916.492
916.493
916.493
916.493
916.493
916.493
916.493
916.493
916.493
916.494
916.494
916.494
916.494
916.494
916.494
916.495
916.495
916.495
916.495
916.495
916.495
916.496
916.496
916.496
916.496
916.497
916.497
916.497
916.497
916.497
916.498
916.498
916.498
916.498
916.499
916.499
916.499
916.499
916.5
916.5
916.5
916.5
916.501
916.501
916.501
916.501
916.502
916.502
916.502
916.502
916.503
916.503
916.503
916.503
916.503
916.504
916.504
916.504
916.504
916.505
916.505
916.505
916.505
916.505
916.506
916.506
916.506
916.506
916.506
916.507
916.507
916.507
916.507
916.507
916.508
916.508
916.508
916.508
916.508
916.508
916.508
916.509
916.509
916.509
916.509
916.509
916.509
916.509
916.51
916.51
916.51
916.51
916.51
916.51
916.51
916.51
916.511
916.511
916.511
916.511
916.511
916.511
916.511
916.511
916.511
916.511
916.511
916.512
916.512
916.512
916.512
916.512
916.512
916.512
916.512
916.512
916.512
916.512
916.512
916.512
916.512
916.512
916.513
916.513
916.513
916.513
916.513
916.513
916.513
916.513
916.513
916.513
916.513
916.513
916.513
916.513
916.513
916.513
916.513
916.513
916.513
916.513
916.513
916.514
916.514
916.514
916.514
916.514
916.514
916.514
916.514
916.514
916.514
916.514
916.514
916.514
916.514
916.514
916.514
916.514
916.514
916.514
916.514
916.514
916.514
916.514
916.514
916.514
916.514
916.514
916.514
916.515
916.515
916.515
916.515
916.515
916.515
916.515
916.515
916.515
916.515
916.515
916.515
916.515
916.515
916.515
916.515
916.515
916.515
916.515
916.515
916.515
916.515
916.515
916.515
916.515
916.515
916.515
916.515
916.515
916.515
916.515
916.515
916.515
916.515
916.515
916.515
916.515
916.515
916.515
916.515
916.515
916.515
916.515
916.515
916.515
916.515
916.515
916.515
916.515
916.515
916.515
916.515
916.515
916.515
916.515
916.515
916.516
916.516
916.516
916.516
916.516
916.516
916.516
916.516
916.516
916.516
916.516
916.516
916.516
916.516
916.516
916.516
916.516
916.516
916.516
916.516
916.516
916.516
916.516
916.516
916.516
916.516
916.516
916.516
916.516
916.516
916.516
916.516
916.516
916.517
916.517
916.517
916.517
916.517
916.517
916.517
916.517
916.517
916.517
916.517
916.517
916.517
916.517
916.517
916.517
916.517
916.517
916.517
916.517
916.517
916.517
916.518
916.518
916.518
916.518
916.518
916.518
916.518
916.518
916.518
916.518
916.518
916.518
916.518
916.518
916.518
916.518
916.518
916.518
916.518
916.518
916.518
916.518
916.518
916.518
916.518
916.518
916.518
916.518
916.518
916.518
916.518
916.518
916.518
916.518
916.518
916.518
916.518
916.518
916.518
916.518
916.518
916.518
916.518
916.518
916.518
916.518
916.518
916.518
916.518
916.518
916.518
916.518
916.518
916.518
916.518
916.518
916.518
916.518
916.518
916.518
916.518
916.518
916.518
916.517
916.517
916.517
916.517
916.517
916.517
916.517
916.517
916.517
916.517
916.517
916.517
916.517
916.517
916.517
916.517
916.517
916.517
916.517
916.517
916.517
916.517
916.517
916.517
916.517
916.517
916.517
916.517
916.517
916.517
916.517
916.517
916.517
916.517
916.517
916.517
916.517
916.518
916.518
916.518
916.518
916.518
916.518
916.518
916.518
916.518
916.518
916.518
916.518
916.518
916.518
916.518
916.519
916.519
916.519
916.519
916.519
916.519
916.519
916.519
916.519
916.519
916.519
916.519
916.52
916.52
916.52
916.52
916.52
916.52
916.52
916.52
916.52
916.52
916.52
916.52
916.52
916.52
916.521
916.521
916.521
916.521
916.521
916.521
916.521
916.521
916.521
916.521
916.521
916.521
916.521
916.521
916.521
916.521
916.521
916.521
916.521
916.521
916.521
916.521
916.521
916.52
916.52
916.52
916.52
916.52
916.52
916.52
916.52
916.52
916.519
916.519
916.519
916.519
916.519
916.519
916.518
916.518
916.518
916.518
916.517
916.517
916.517
916.516
916.516
916.516
916.515
916.515
916.515
916.514
916.514
916.513
916.513
916.512
916.511
916.511
916.51
916.509
916.508
916.507
916.506
916.505
916.504
916.503
916.502
916.5
916.499
916.497
916.495
916.493
916.491
916.489
916.487
916.484
916.481
916.478
916.475
916.471
916.468
916.463
916.459
916.454
916.449
916.443
916.437
916.431
916.424
916.416
916.408
916.399
916.389
916.379
916.368
916.356
916.343
916.329
916.314
916.298
916.281
916.262
916.243
916.221
916.198
916.174
916.148
916.119
916.089
916.057
916.022
915.985
915.946
915.903
915.858
915.81
915.759
915.704
915.645
915.583
915.516
915.446
915.37
915.29
915.205
915.115
915.019
914.917
914.809
914.694
914.572
914.444
914.307
914.163
914.01
913.848
913.678
913.497
913.307
913.106
912.894
912.67
912.434
912.186
911.925
911.65
911.361
911.057
910.737
910.402
910.05
909.68
909.292
908.886
908.46
908.014
907.548
907.059
906.548
906.015
905.457
904.874
904.266
903.631
902.969
902.278
901.559
900.81
900.029
899.217
898.372
897.493
896.579
895.63
894.643
893.619
892.556
891.452
890.308
889.121
887.891
886.616
885.295
883.927
882.511
881.045
879.529
877.96
876.337
874.659
872.924
871.132
869.279
867.366
865.389
863.348
861.24
859.063
856.817
854.498
852.105
849.635
847.086
844.456
841.742
838.942
836.053
833.072
829.997
826.823
823.549
820.169
816.682
813.082
809.367
805.531
801.571
797.481
793.258
788.895
784.387
779.73
774.916
769.939
764.793
759.471
753.966
748.269
742.374
736.271
729.952
723.407
716.638
709.685
702.407
694.862
687.038
678.924
670.507
661.775
652.716
643.316
633.562
623.442
612.942
602.052
590.757
579.048
566.914
554.347
541.339
527.887
513.988
499.644
484.861
469.648
454.023
438.008
421.631
404.931
387.956
370.763
353.422
336.018
318.649
301.432
)
;

boundaryField
{
    fixedWall
    {
        type            fixedValue;
        value           uniform 293;
    }
    outlet
    {
        type            inletOutlet;
        inletValue      uniform 293;
        value           uniform 293;
    }
    defaultFaces
    {
        type            empty;
    }
}


// ************************************************************************* //
