/*--------------------------------*- C++ -*----------------------------------*\
| =========                 |                                                 |
| \\      /  F ield         | OpenFOAM: The Open Source CFD Toolbox           |
|  \\    /   O peration     | Version:  2406                                  |
|   \\  /    A nd           | Website:  www.openfoam.com                      |
|    \\/     M anipulation  |                                                 |
\*---------------------------------------------------------------------------*/
FoamFile
{
    version     2.0;
    format      ascii;
    arch        "LSB;label=32;scalar=64";
    class       volVectorField;
    location    "10.9";
    object      U;
}
// * * * * * * * * * * * * * * * * * * * * * * * * * * * * * * * * * * * * * //

dimensions      [0 1 -1 0 0 0 0];

internalField   nonuniform List<vector> 
1000
(
(-8.64851e-07 0 0)
(-4.11363e-06 0 0)
(-1.05397e-05 0 0)
(-1.94066e-05 0 0)
(-3.01547e-05 0 0)
(-4.24501e-05 0 0)
(-5.60552e-05 0 0)
(-7.07786e-05 0 0)
(-8.64589e-05 0 0)
(-0.00010296 0 0)
(-0.000120167 0 0)
(-0.000137985 0 0)
(-0.000156328 0 0)
(-0.000175126 0 0)
(-0.000194314 0 0)
(-0.000213838 0 0)
(-0.000233647 0 0)
(-0.000253699 0 0)
(-0.000273953 0 0)
(-0.000294377 0 0)
(-0.000314935 0 0)
(-0.000335602 0 0)
(-0.000356348 0 0)
(-0.000377153 0 0)
(-0.000397991 0 0)
(-0.000418844 0 0)
(-0.000439694 0 0)
(-0.000460522 0 0)
(-0.000481314 0 0)
(-0.000502053 0 0)
(-0.000522727 0 0)
(-0.000543323 0 0)
(-0.000563828 0 0)
(-0.000584233 0 0)
(-0.000604526 0 0)
(-0.000624699 0 0)
(-0.000644741 0 0)
(-0.000664645 0 0)
(-0.000684402 0 0)
(-0.000704006 0 0)
(-0.00072345 0 0)
(-0.000742726 0 0)
(-0.00076183 0 0)
(-0.000780755 0 0)
(-0.000799498 0 0)
(-0.000818051 0 0)
(-0.000836412 0 0)
(-0.000854576 0 0)
(-0.000872539 0 0)
(-0.000890299 0 0)
(-0.00090785 0 0)
(-0.000925192 0 0)
(-0.000942319 0 0)
(-0.000959232 0 0)
(-0.000975926 0 0)
(-0.000992401 0 0)
(-0.00100865 0 0)
(-0.00102468 0 0)
(-0.00104049 0 0)
(-0.00105607 0 0)
(-0.00107142 0 0)
(-0.00108654 0 0)
(-0.00110144 0 0)
(-0.00111611 0 0)
(-0.00113055 0 0)
(-0.00114476 0 0)
(-0.00115874 0 0)
(-0.00117249 0 0)
(-0.00118601 0 0)
(-0.00119931 0 0)
(-0.00121237 0 0)
(-0.00122521 0 0)
(-0.00123783 0 0)
(-0.00125021 0 0)
(-0.00126238 0 0)
(-0.00127431 0 0)
(-0.00128603 0 0)
(-0.00129753 0 0)
(-0.0013088 0 0)
(-0.00131986 0 0)
(-0.0013307 0 0)
(-0.00134133 0 0)
(-0.00135174 0 0)
(-0.00136195 0 0)
(-0.00137194 0 0)
(-0.00138173 0 0)
(-0.00139131 0 0)
(-0.00140068 0 0)
(-0.00140986 0 0)
(-0.00141883 0 0)
(-0.00142761 0 0)
(-0.00143619 0 0)
(-0.00144458 0 0)
(-0.00145278 0 0)
(-0.0014608 0 0)
(-0.00146863 0 0)
(-0.00147627 0 0)
(-0.00148373 0 0)
(-0.00149102 0 0)
(-0.00149813 0 0)
(-0.00150507 0 0)
(-0.00151184 0 0)
(-0.00151844 0 0)
(-0.00152487 0 0)
(-0.00153114 0 0)
(-0.00153726 0 0)
(-0.00154321 0 0)
(-0.00154901 0 0)
(-0.00155466 0 0)
(-0.00156016 0 0)
(-0.00156551 0 0)
(-0.00157072 0 0)
(-0.00157579 0 0)
(-0.00158072 0 0)
(-0.00158551 0 0)
(-0.00159017 0 0)
(-0.0015947 0 0)
(-0.0015991 0 0)
(-0.00160338 0 0)
(-0.00160753 0 0)
(-0.00161156 0 0)
(-0.00161547 0 0)
(-0.00161927 0 0)
(-0.00162296 0 0)
(-0.00162653 0 0)
(-0.00163 0 0)
(-0.00163336 0 0)
(-0.00163662 0 0)
(-0.00163978 0 0)
(-0.00164284 0 0)
(-0.0016458 0 0)
(-0.00164867 0 0)
(-0.00165145 0 0)
(-0.00165414 0 0)
(-0.00165674 0 0)
(-0.00165926 0 0)
(-0.00166169 0 0)
(-0.00166405 0 0)
(-0.00166632 0 0)
(-0.00166852 0 0)
(-0.00167065 0 0)
(-0.0016727 0 0)
(-0.00167469 0 0)
(-0.0016766 0 0)
(-0.00167845 0 0)
(-0.00168024 0 0)
(-0.00168196 0 0)
(-0.00168362 0 0)
(-0.00168522 0 0)
(-0.00168676 0 0)
(-0.00168825 0 0)
(-0.00168968 0 0)
(-0.00169107 0 0)
(-0.00169239 0 0)
(-0.00169368 0 0)
(-0.00169491 0 0)
(-0.0016961 0 0)
(-0.00169724 0 0)
(-0.00169835 0 0)
(-0.0016994 0 0)
(-0.00170042 0 0)
(-0.00170139 0 0)
(-0.00170232 0 0)
(-0.00170322 0 0)
(-0.00170409 0 0)
(-0.00170492 0 0)
(-0.00170572 0 0)
(-0.00170648 0 0)
(-0.00170722 0 0)
(-0.00170792 0 0)
(-0.0017086 0 0)
(-0.00170925 0 0)
(-0.00170987 0 0)
(-0.00171047 0 0)
(-0.00171104 0 0)
(-0.00171159 0 0)
(-0.00171211 0 0)
(-0.00171262 0 0)
(-0.0017131 0 0)
(-0.00171356 0 0)
(-0.001714 0 0)
(-0.00171442 0 0)
(-0.00171482 0 0)
(-0.00171521 0 0)
(-0.00171557 0 0)
(-0.00171593 0 0)
(-0.00171626 0 0)
(-0.00171658 0 0)
(-0.00171689 0 0)
(-0.00171718 0 0)
(-0.00171746 0 0)
(-0.00171773 0 0)
(-0.00171798 0 0)
(-0.00171822 0 0)
(-0.00171845 0 0)
(-0.00171867 0 0)
(-0.00171888 0 0)
(-0.00171908 0 0)
(-0.00171927 0 0)
(-0.00171945 0 0)
(-0.00171962 0 0)
(-0.00171979 0 0)
(-0.00171994 0 0)
(-0.00172009 0 0)
(-0.00172023 0 0)
(-0.00172037 0 0)
(-0.00172049 0 0)
(-0.00172061 0 0)
(-0.00172073 0 0)
(-0.00172084 0 0)
(-0.00172094 0 0)
(-0.00172104 0 0)
(-0.00172113 0 0)
(-0.00172122 0 0)
(-0.0017213 0 0)
(-0.00172138 0 0)
(-0.00172146 0 0)
(-0.00172153 0 0)
(-0.00172159 0 0)
(-0.00172166 0 0)
(-0.00172172 0 0)
(-0.00172177 0 0)
(-0.00172183 0 0)
(-0.00172188 0 0)
(-0.00172193 0 0)
(-0.00172197 0 0)
(-0.00172201 0 0)
(-0.00172205 0 0)
(-0.00172209 0 0)
(-0.00172213 0 0)
(-0.00172216 0 0)
(-0.00172219 0 0)
(-0.00172222 0 0)
(-0.00172225 0 0)
(-0.00172227 0 0)
(-0.0017223 0 0)
(-0.00172232 0 0)
(-0.00172234 0 0)
(-0.00172236 0 0)
(-0.00172238 0 0)
(-0.0017224 0 0)
(-0.00172242 0 0)
(-0.00172243 0 0)
(-0.00172244 0 0)
(-0.00172246 0 0)
(-0.00172247 0 0)
(-0.00172248 0 0)
(-0.00172249 0 0)
(-0.0017225 0 0)
(-0.00172251 0 0)
(-0.00172252 0 0)
(-0.00172253 0 0)
(-0.00172254 0 0)
(-0.00172254 0 0)
(-0.00172255 0 0)
(-0.00172255 0 0)
(-0.00172256 0 0)
(-0.00172256 0 0)
(-0.00172257 0 0)
(-0.00172257 0 0)
(-0.00172257 0 0)
(-0.00172257 0 0)
(-0.00172258 0 0)
(-0.00172258 0 0)
(-0.00172258 0 0)
(-0.00172258 0 0)
(-0.00172258 0 0)
(-0.00172258 0 0)
(-0.00172258 0 0)
(-0.00172259 0 0)
(-0.00172258 0 0)
(-0.00172258 0 0)
(-0.00172258 0 0)
(-0.00172258 0 0)
(-0.00172258 0 0)
(-0.00172258 0 0)
(-0.00172258 0 0)
(-0.00172258 0 0)
(-0.00172258 0 0)
(-0.00172258 0 0)
(-0.00172257 0 0)
(-0.00172258 0 0)
(-0.00172257 0 0)
(-0.00172257 0 0)
(-0.00172257 0 0)
(-0.00172257 0 0)
(-0.00172257 0 0)
(-0.00172256 0 0)
(-0.00172256 0 0)
(-0.00172256 0 0)
(-0.00172256 0 0)
(-0.00172256 0 0)
(-0.00172255 0 0)
(-0.00172255 0 0)
(-0.00172255 0 0)
(-0.00172255 0 0)
(-0.00172255 0 0)
(-0.00172254 0 0)
(-0.00172254 0 0)
(-0.00172254 0 0)
(-0.00172254 0 0)
(-0.00172254 0 0)
(-0.00172253 0 0)
(-0.00172253 0 0)
(-0.00172253 0 0)
(-0.00172253 0 0)
(-0.00172252 0 0)
(-0.00172252 0 0)
(-0.00172252 0 0)
(-0.00172252 0 0)
(-0.00172252 0 0)
(-0.00172251 0 0)
(-0.00172251 0 0)
(-0.00172251 0 0)
(-0.00172251 0 0)
(-0.00172251 0 0)
(-0.0017225 0 0)
(-0.00172251 0 0)
(-0.0017225 0 0)
(-0.0017225 0 0)
(-0.0017225 0 0)
(-0.0017225 0 0)
(-0.0017225 0 0)
(-0.00172249 0 0)
(-0.0017225 0 0)
(-0.00172249 0 0)
(-0.00172249 0 0)
(-0.00172249 0 0)
(-0.00172249 0 0)
(-0.00172249 0 0)
(-0.00172249 0 0)
(-0.00172249 0 0)
(-0.00172248 0 0)
(-0.00172249 0 0)
(-0.00172248 0 0)
(-0.00172248 0 0)
(-0.00172248 0 0)
(-0.00172248 0 0)
(-0.00172248 0 0)
(-0.00172248 0 0)
(-0.00172248 0 0)
(-0.00172248 0 0)
(-0.00172248 0 0)
(-0.00172247 0 0)
(-0.00172248 0 0)
(-0.00172247 0 0)
(-0.00172248 0 0)
(-0.00172247 0 0)
(-0.00172248 0 0)
(-0.00172247 0 0)
(-0.00172247 0 0)
(-0.00172247 0 0)
(-0.00172247 0 0)
(-0.00172248 0 0)
(-0.00172247 0 0)
(-0.00172248 0 0)
(-0.00172247 0 0)
(-0.00172247 0 0)
(-0.00172248 0 0)
(-0.00172247 0 0)
(-0.00172247 0 0)
(-0.00172247 0 0)
(-0.00172247 0 0)
(-0.00172247 0 0)
(-0.00172248 0 0)
(-0.00172248 0 0)
(-0.00172248 0 0)
(-0.00172248 0 0)
(-0.00172248 0 0)
(-0.00172248 0 0)
(-0.00172248 0 0)
(-0.00172248 0 0)
(-0.00172248 0 0)
(-0.00172248 0 0)
(-0.00172248 0 0)
(-0.00172248 0 0)
(-0.00172248 0 0)
(-0.00172248 0 0)
(-0.00172248 0 0)
(-0.00172248 0 0)
(-0.00172248 0 0)
(-0.00172248 0 0)
(-0.00172248 0 0)
(-0.00172248 0 0)
(-0.00172249 0 0)
(-0.00172249 0 0)
(-0.00172249 0 0)
(-0.00172249 0 0)
(-0.00172249 0 0)
(-0.00172249 0 0)
(-0.00172249 0 0)
(-0.00172249 0 0)
(-0.00172249 0 0)
(-0.00172249 0 0)
(-0.00172249 0 0)
(-0.00172249 0 0)
(-0.00172249 0 0)
(-0.00172249 0 0)
(-0.00172249 0 0)
(-0.00172249 0 0)
(-0.00172249 0 0)
(-0.00172249 0 0)
(-0.0017225 0 0)
(-0.0017225 0 0)
(-0.0017225 0 0)
(-0.0017225 0 0)
(-0.0017225 0 0)
(-0.0017225 0 0)
(-0.0017225 0 0)
(-0.0017225 0 0)
(-0.0017225 0 0)
(-0.0017225 0 0)
(-0.0017225 0 0)
(-0.0017225 0 0)
(-0.0017225 0 0)
(-0.0017225 0 0)
(-0.0017225 0 0)
(-0.0017225 0 0)
(-0.0017225 0 0)
(-0.0017225 0 0)
(-0.0017225 0 0)
(-0.0017225 0 0)
(-0.00172251 0 0)
(-0.0017225 0 0)
(-0.00172251 0 0)
(-0.00172251 0 0)
(-0.00172251 0 0)
(-0.00172251 0 0)
(-0.00172251 0 0)
(-0.00172251 0 0)
(-0.00172251 0 0)
(-0.00172251 0 0)
(-0.00172251 0 0)
(-0.00172251 0 0)
(-0.00172251 0 0)
(-0.00172251 0 0)
(-0.00172251 0 0)
(-0.00172251 0 0)
(-0.00172251 0 0)
(-0.00172251 0 0)
(-0.00172251 0 0)
(-0.00172251 0 0)
(-0.00172251 0 0)
(-0.00172251 0 0)
(-0.00172251 0 0)
(-0.00172251 0 0)
(-0.00172251 0 0)
(-0.00172251 0 0)
(-0.00172251 0 0)
(-0.00172251 0 0)
(-0.00172251 0 0)
(-0.00172251 0 0)
(-0.00172251 0 0)
(-0.00172251 0 0)
(-0.00172251 0 0)
(-0.00172251 0 0)
(-0.00172251 0 0)
(-0.00172251 0 0)
(-0.00172251 0 0)
(-0.00172251 0 0)
(-0.00172251 0 0)
(-0.00172251 0 0)
(-0.00172251 0 0)
(-0.00172251 0 0)
(-0.00172251 0 0)
(-0.00172251 0 0)
(-0.00172251 0 0)
(-0.00172251 0 0)
(-0.00172251 0 0)
(-0.00172251 0 0)
(-0.00172251 0 0)
(-0.00172251 0 0)
(-0.00172251 0 0)
(-0.00172251 0 0)
(-0.00172251 0 0)
(-0.00172251 0 0)
(-0.00172251 0 0)
(-0.00172251 0 0)
(-0.00172251 0 0)
(-0.00172251 0 0)
(-0.00172251 0 0)
(-0.00172251 0 0)
(-0.00172251 0 0)
(-0.00172251 0 0)
(-0.00172251 0 0)
(-0.00172251 0 0)
(-0.00172251 0 0)
(-0.00172251 0 0)
(-0.00172251 0 0)
(-0.00172251 0 0)
(-0.00172251 0 0)
(-0.00172251 0 0)
(-0.00172251 0 0)
(-0.00172251 0 0)
(-0.00172251 0 0)
(-0.00172251 0 0)
(-0.00172251 0 0)
(-0.00172251 0 0)
(-0.00172251 0 0)
(-0.00172251 0 0)
(-0.00172251 0 0)
(-0.00172251 0 0)
(-0.00172251 0 0)
(-0.00172251 0 0)
(-0.00172251 0 0)
(-0.00172251 0 0)
(-0.00172251 0 0)
(-0.00172251 0 0)
(-0.00172251 0 0)
(-0.00172251 0 0)
(-0.00172251 0 0)
(-0.0017225 0 0)
(-0.00172251 0 0)
(-0.00172251 0 0)
(-0.0017225 0 0)
(-0.00172251 0 0)
(-0.00172251 0 0)
(-0.00172251 0 0)
(-0.00172251 0 0)
(-0.00172251 0 0)
(-0.00172251 0 0)
(-0.00172251 0 0)
(-0.0017225 0 0)
(-0.00172251 0 0)
(-0.0017225 0 0)
(-0.00172251 0 0)
(-0.0017225 0 0)
(-0.00172251 0 0)
(-0.0017225 0 0)
(-0.0017225 0 0)
(-0.0017225 0 0)
(-0.0017225 0 0)
(-0.0017225 0 0)
(-0.0017225 0 0)
(-0.0017225 0 0)
(-0.0017225 0 0)
(-0.0017225 0 0)
(-0.0017225 0 0)
(-0.0017225 0 0)
(-0.0017225 0 0)
(-0.0017225 0 0)
(-0.0017225 0 0)
(-0.0017225 0 0)
(-0.0017225 0 0)
(-0.0017225 0 0)
(-0.0017225 0 0)
(-0.0017225 0 0)
(-0.0017225 0 0)
(-0.0017225 0 0)
(-0.0017225 0 0)
(-0.0017225 0 0)
(-0.0017225 0 0)
(-0.0017225 0 0)
(-0.0017225 0 0)
(-0.00172249 0 0)
(-0.0017225 0 0)
(-0.00172249 0 0)
(-0.0017225 0 0)
(-0.00172249 0 0)
(-0.0017225 0 0)
(-0.00172249 0 0)
(-0.00172249 0 0)
(-0.00172249 0 0)
(-0.00172249 0 0)
(-0.00172249 0 0)
(-0.00172249 0 0)
(-0.00172249 0 0)
(-0.00172249 0 0)
(-0.00172249 0 0)
(-0.00172249 0 0)
(-0.00172249 0 0)
(-0.00172249 0 0)
(-0.00172249 0 0)
(-0.00172249 0 0)
(-0.00172249 0 0)
(-0.00172249 0 0)
(-0.00172249 0 0)
(-0.00172249 0 0)
(-0.00172249 0 0)
(-0.00172249 0 0)
(-0.00172249 0 0)
(-0.00172249 0 0)
(-0.00172249 0 0)
(-0.00172249 0 0)
(-0.00172249 0 0)
(-0.00172249 0 0)
(-0.00172249 0 0)
(-0.00172249 0 0)
(-0.00172249 0 0)
(-0.00172249 0 0)
(-0.00172249 0 0)
(-0.00172249 0 0)
(-0.00172249 0 0)
(-0.00172249 0 0)
(-0.00172249 0 0)
(-0.00172249 0 0)
(-0.00172249 0 0)
(-0.00172248 0 0)
(-0.00172249 0 0)
(-0.00172249 0 0)
(-0.00172249 0 0)
(-0.00172249 0 0)
(-0.00172249 0 0)
(-0.00172249 0 0)
(-0.00172249 0 0)
(-0.00172249 0 0)
(-0.00172249 0 0)
(-0.00172249 0 0)
(-0.00172249 0 0)
(-0.00172249 0 0)
(-0.00172249 0 0)
(-0.00172249 0 0)
(-0.00172249 0 0)
(-0.00172249 0 0)
(-0.00172249 0 0)
(-0.00172249 0 0)
(-0.00172249 0 0)
(-0.00172249 0 0)
(-0.00172249 0 0)
(-0.00172249 0 0)
(-0.00172249 0 0)
(-0.00172249 0 0)
(-0.00172249 0 0)
(-0.00172249 0 0)
(-0.00172249 0 0)
(-0.00172249 0 0)
(-0.00172249 0 0)
(-0.00172249 0 0)
(-0.00172249 0 0)
(-0.00172249 0 0)
(-0.00172249 0 0)
(-0.00172249 0 0)
(-0.00172249 0 0)
(-0.00172249 0 0)
(-0.00172249 0 0)
(-0.00172249 0 0)
(-0.00172249 0 0)
(-0.00172249 0 0)
(-0.00172249 0 0)
(-0.00172249 0 0)
(-0.00172249 0 0)
(-0.00172249 0 0)
(-0.00172249 0 0)
(-0.00172249 0 0)
(-0.00172249 0 0)
(-0.00172249 0 0)
(-0.00172249 0 0)
(-0.00172249 0 0)
(-0.00172249 0 0)
(-0.00172249 0 0)
(-0.00172249 0 0)
(-0.00172249 0 0)
(-0.00172249 0 0)
(-0.00172249 0 0)
(-0.00172249 0 0)
(-0.00172249 0 0)
(-0.00172249 0 0)
(-0.00172249 0 0)
(-0.00172249 0 0)
(-0.00172249 0 0)
(-0.00172249 0 0)
(-0.00172249 0 0)
(-0.00172249 0 0)
(-0.00172249 0 0)
(-0.00172249 0 0)
(-0.00172249 0 0)
(-0.00172248 0 0)
(-0.00172249 0 0)
(-0.00172248 0 0)
(-0.00172249 0 0)
(-0.00172248 0 0)
(-0.00172249 0 0)
(-0.00172248 0 0)
(-0.00172248 0 0)
(-0.00172248 0 0)
(-0.00172248 0 0)
(-0.00172248 0 0)
(-0.00172248 0 0)
(-0.00172248 0 0)
(-0.00172247 0 0)
(-0.00172248 0 0)
(-0.00172248 0 0)
(-0.00172247 0 0)
(-0.00172248 0 0)
(-0.00172247 0 0)
(-0.00172247 0 0)
(-0.00172247 0 0)
(-0.00172247 0 0)
(-0.00172247 0 0)
(-0.00172247 0 0)
(-0.00172247 0 0)
(-0.00172246 0 0)
(-0.00172247 0 0)
(-0.00172247 0 0)
(-0.00172246 0 0)
(-0.00172247 0 0)
(-0.00172246 0 0)
(-0.00172246 0 0)
(-0.00172246 0 0)
(-0.00172246 0 0)
(-0.00172246 0 0)
(-0.00172246 0 0)
(-0.00172246 0 0)
(-0.00172245 0 0)
(-0.00172246 0 0)
(-0.00172245 0 0)
(-0.00172246 0 0)
(-0.00172245 0 0)
(-0.00172245 0 0)
(-0.00172246 0 0)
(-0.00172245 0 0)
(-0.00172245 0 0)
(-0.00172245 0 0)
(-0.00172245 0 0)
(-0.00172245 0 0)
(-0.00172245 0 0)
(-0.00172245 0 0)
(-0.00172245 0 0)
(-0.00172245 0 0)
(-0.00172245 0 0)
(-0.00172245 0 0)
(-0.00172245 0 0)
(-0.00172245 0 0)
(-0.00172245 0 0)
(-0.00172245 0 0)
(-0.00172245 0 0)
(-0.00172245 0 0)
(-0.00172245 0 0)
(-0.00172245 0 0)
(-0.00172245 0 0)
(-0.00172245 0 0)
(-0.00172245 0 0)
(-0.00172245 0 0)
(-0.00172245 0 0)
(-0.00172245 0 0)
(-0.00172245 0 0)
(-0.00172246 0 0)
(-0.00172246 0 0)
(-0.00172246 0 0)
(-0.00172246 0 0)
(-0.00172246 0 0)
(-0.00172246 0 0)
(-0.00172246 0 0)
(-0.00172246 0 0)
(-0.00172246 0 0)
(-0.00172246 0 0)
(-0.00172246 0 0)
(-0.00172246 0 0)
(-0.00172247 0 0)
(-0.00172247 0 0)
(-0.00172247 0 0)
(-0.00172247 0 0)
(-0.00172247 0 0)
(-0.00172247 0 0)
(-0.00172247 0 0)
(-0.00172247 0 0)
(-0.00172248 0 0)
(-0.00172248 0 0)
(-0.00172248 0 0)
(-0.00172248 0 0)
(-0.00172248 0 0)
(-0.00172248 0 0)
(-0.00172249 0 0)
(-0.00172249 0 0)
(-0.00172249 0 0)
(-0.00172249 0 0)
(-0.00172249 0 0)
(-0.00172249 0 0)
(-0.0017225 0 0)
(-0.0017225 0 0)
(-0.0017225 0 0)
(-0.0017225 0 0)
(-0.00172251 0 0)
(-0.00172251 0 0)
(-0.00172251 0 0)
(-0.00172252 0 0)
(-0.00172252 0 0)
(-0.00172252 0 0)
(-0.00172253 0 0)
(-0.00172253 0 0)
(-0.00172254 0 0)
(-0.00172254 0 0)
(-0.00172255 0 0)
(-0.00172255 0 0)
(-0.00172256 0 0)
(-0.00172256 0 0)
(-0.00172257 0 0)
(-0.00172258 0 0)
(-0.00172259 0 0)
(-0.0017226 0 0)
(-0.00172261 0 0)
(-0.00172262 0 0)
(-0.00172263 0 0)
(-0.00172264 0 0)
(-0.00172266 0 0)
(-0.00172267 0 0)
(-0.00172269 0 0)
(-0.00172271 0 0)
(-0.00172273 0 0)
(-0.00172275 0 0)
(-0.00172277 0 0)
(-0.0017228 0 0)
(-0.00172282 0 0)
(-0.00172285 0 0)
(-0.00172288 0 0)
(-0.00172292 0 0)
(-0.00172296 0 0)
(-0.001723 0 0)
(-0.00172304 0 0)
(-0.00172309 0 0)
(-0.00172314 0 0)
(-0.0017232 0 0)
(-0.00172326 0 0)
(-0.00172333 0 0)
(-0.0017234 0 0)
(-0.00172348 0 0)
(-0.00172356 0 0)
(-0.00172365 0 0)
(-0.00172375 0 0)
(-0.00172386 0 0)
(-0.00172397 0 0)
(-0.00172409 0 0)
(-0.00172423 0 0)
(-0.00172437 0 0)
(-0.00172452 0 0)
(-0.00172469 0 0)
(-0.00172486 0 0)
(-0.00172506 0 0)
(-0.00172526 0 0)
(-0.00172548 0 0)
(-0.00172572 0 0)
(-0.00172597 0 0)
(-0.00172624 0 0)
(-0.00172653 0 0)
(-0.00172685 0 0)
(-0.00172718 0 0)
(-0.00172754 0 0)
(-0.00172792 0 0)
(-0.00172833 0 0)
(-0.00172876 0 0)
(-0.00172923 0 0)
(-0.00172973 0 0)
(-0.00173026 0 0)
(-0.00173083 0 0)
(-0.00173143 0 0)
(-0.00173208 0 0)
(-0.00173276 0 0)
(-0.00173349 0 0)
(-0.00173427 0 0)
(-0.00173509 0 0)
(-0.00173597 0 0)
(-0.0017369 0 0)
(-0.00173789 0 0)
(-0.00173894 0 0)
(-0.00174006 0 0)
(-0.00174124 0 0)
(-0.00174249 0 0)
(-0.00174382 0 0)
(-0.00174522 0 0)
(-0.00174671 0 0)
(-0.00174828 0 0)
(-0.00174994 0 0)
(-0.00175169 0 0)
(-0.00175355 0 0)
(-0.0017555 0 0)
(-0.00175757 0 0)
(-0.00175974 0 0)
(-0.00176203 0 0)
(-0.00176445 0 0)
(-0.00176699 0 0)
(-0.00176967 0 0)
(-0.00177248 0 0)
(-0.00177544 0 0)
(-0.00177854 0 0)
(-0.0017818 0 0)
(-0.00178523 0 0)
(-0.00178882 0 0)
(-0.00179259 0 0)
(-0.00179653 0 0)
(-0.00180066 0 0)
(-0.00180499 0 0)
(-0.00180951 0 0)
(-0.00181425 0 0)
(-0.00181919 0 0)
(-0.00182436 0 0)
(-0.00182975 0 0)
(-0.00183538 0 0)
(-0.00184125 0 0)
(-0.00184737 0 0)
(-0.00185374 0 0)
(-0.00186038 0 0)
(-0.00186728 0 0)
(-0.00187447 0 0)
(-0.00188193 0 0)
(-0.00188969 0 0)
(-0.00189775 0 0)
(-0.00190611 0 0)
(-0.00191478 0 0)
(-0.00192377 0 0)
(-0.00193308 0 0)
(-0.00194273 0 0)
(-0.00195271 0 0)
(-0.00196303 0 0)
(-0.00197371 0 0)
(-0.00198473 0 0)
(-0.00199612 0 0)
(-0.00200787 0 0)
(-0.00201999 0 0)
(-0.00203248 0 0)
(-0.00204535 0 0)
(-0.0020586 0 0)
(-0.00207223 0 0)
(-0.00208625 0 0)
(-0.00210066 0 0)
(-0.00211546 0 0)
(-0.00213065 0 0)
(-0.00214623 0 0)
(-0.0021622 0 0)
(-0.00217857 0 0)
(-0.00219532 0 0)
(-0.00221246 0 0)
(-0.00222999 0 0)
(-0.0022479 0 0)
(-0.00226618 0 0)
(-0.00228484 0 0)
(-0.00230387 0 0)
(-0.00232325 0 0)
(-0.00234299 0 0)
(-0.00236307 0 0)
(-0.00238349 0 0)
(-0.00240423 0 0)
(-0.00242528 0 0)
(-0.00244663 0 0)
(-0.00246827 0 0)
(-0.00249017 0 0)
(-0.00251233 0 0)
(-0.00253473 0 0)
(-0.00255734 0 0)
(-0.00258015 0 0)
(-0.00260314 0 0)
(-0.00262628 0 0)
(-0.00264955 0 0)
(-0.00267292 0 0)
(-0.00269636 0 0)
(-0.00271985 0 0)
(-0.00274336 0 0)
(-0.00276685 0 0)
(-0.00279029 0 0)
(-0.00281364 0 0)
(-0.00283687 0 0)
(-0.00285993 0 0)
(-0.00288279 0 0)
(-0.00290539 0 0)
(-0.0029277 0 0)
(-0.00294966 0 0)
(-0.00297122 0 0)
(-0.00299233 0 0)
(-0.00301294 0 0)
(-0.00303297 0 0)
(-0.00305237 0 0)
(-0.00307108 0 0)
(-0.00308901 0 0)
(-0.00310609 0 0)
(-0.00312226 0 0)
(-0.00313743 0 0)
(-0.00315151 0 0)
(-0.00316447 0 0)
(-0.00317619 0 0)
(-0.00318661 0 0)
(-0.00319571 0 0)
(-0.00320336 0 0)
(-0.0032094 0 0)
(-0.00321366 0 0)
(-0.00321592 0 0)
(-0.00321615 0 0)
(-0.00321418 0 0)
(-0.00320983 0 0)
(-0.00320302 0 0)
(-0.0031935 0 0)
(-0.00318116 0 0)
(-0.00316578 0 0)
(-0.00314718 0 0)
(-0.00312515 0 0)
(-0.00309946 0 0)
(-0.0030699 0 0)
(-0.00303623 0 0)
(-0.0029982 0 0)
(-0.00295555 0 0)
(-0.00290805 0 0)
(-0.00285543 0 0)
(-0.00279744 0 0)
(-0.00273383 0 0)
(-0.00266435 0 0)
(-0.00258878 0 0)
(-0.00250707 0 0)
(-0.00241943 0 0)
(-0.00232576 0 0)
(-0.00222203 0 0)
(-0.0020994 0 0)
(-0.00197758 0 0)
)
;

boundaryField
{
    fixedWall
    {
        type            fixedValue;
        value           uniform (0 0 0);
    }
    outlet
    {
        type            pressureInletOutletVelocity;
        value           uniform (-0.00197758 0 0);
    }
    defaultFaces
    {
        type            empty;
    }
}


// ************************************************************************* //
