/*--------------------------------*- C++ -*----------------------------------*\
| =========                 |                                                 |
| \\      /  F ield         | OpenFOAM: The Open Source CFD Toolbox           |
|  \\    /   O peration     | Version:  2406                                  |
|   \\  /    A nd           | Website:  www.openfoam.com                      |
|    \\/     M anipulation  |                                                 |
\*---------------------------------------------------------------------------*/
FoamFile
{
    version     2.0;
    format      ascii;
    arch        "LSB;label=32;scalar=64";
    class       surfaceScalarField;
    location    "13.8";
    object      phi;
}
// * * * * * * * * * * * * * * * * * * * * * * * * * * * * * * * * * * * * * //

dimensions      [1 0 -1 0 0 0 0];

oriented        oriented;

internalField   nonuniform List<scalar> 
999
(
-1.1292e-08
-3.84777e-08
-7.62238e-08
-1.21154e-07
-1.71012e-07
-2.24257e-07
-2.79806e-07
-3.36893e-07
-3.94951e-07
-4.53564e-07
-5.1242e-07
-5.71294e-07
-6.30001e-07
-6.88413e-07
-7.46427e-07
-8.03955e-07
-8.6095e-07
-9.17361e-07
-9.73159e-07
-1.02832e-06
-1.08281e-06
-1.13664e-06
-1.18979e-06
-1.24226e-06
-1.29404e-06
-1.34514e-06
-1.39555e-06
-1.44529e-06
-1.49435e-06
-1.54273e-06
-1.59045e-06
-1.63752e-06
-1.68393e-06
-1.72969e-06
-1.77481e-06
-1.8193e-06
-1.86317e-06
-1.90642e-06
-1.94905e-06
-1.99109e-06
-2.03253e-06
-2.07337e-06
-2.11364e-06
-2.15333e-06
-2.19245e-06
-2.231e-06
-2.269e-06
-2.30645e-06
-2.34336e-06
-2.37972e-06
-2.41556e-06
-2.45087e-06
-2.48566e-06
-2.51993e-06
-2.55369e-06
-2.58696e-06
-2.61972e-06
-2.65199e-06
-2.68378e-06
-2.71508e-06
-2.7459e-06
-2.77625e-06
-2.80614e-06
-2.83556e-06
-2.86453e-06
-2.89304e-06
-2.9211e-06
-2.94872e-06
-2.9759e-06
-3.00265e-06
-3.02897e-06
-3.05486e-06
-3.08033e-06
-3.10539e-06
-3.13003e-06
-3.15427e-06
-3.1781e-06
-3.20153e-06
-3.22457e-06
-3.24721e-06
-3.26947e-06
-3.29135e-06
-3.31285e-06
-3.33397e-06
-3.35473e-06
-3.37512e-06
-3.39514e-06
-3.41481e-06
-3.43412e-06
-3.45309e-06
-3.47171e-06
-3.48998e-06
-3.50792e-06
-3.52553e-06
-3.5428e-06
-3.55975e-06
-3.57637e-06
-3.59268e-06
-3.60867e-06
-3.62435e-06
-3.63973e-06
-3.6548e-06
-3.66957e-06
-3.68405e-06
-3.69823e-06
-3.71213e-06
-3.72574e-06
-3.73908e-06
-3.75214e-06
-3.76492e-06
-3.77744e-06
-3.78969e-06
-3.80169e-06
-3.81342e-06
-3.8249e-06
-3.83614e-06
-3.84712e-06
-3.85787e-06
-3.86837e-06
-3.87864e-06
-3.88868e-06
-3.89849e-06
-3.90807e-06
-3.91743e-06
-3.92658e-06
-3.93551e-06
-3.94424e-06
-3.95275e-06
-3.96107e-06
-3.96918e-06
-3.9771e-06
-3.98482e-06
-3.99236e-06
-3.99971e-06
-4.00687e-06
-4.01386e-06
-4.02067e-06
-4.02731e-06
-4.03378e-06
-4.04008e-06
-4.04622e-06
-4.05219e-06
-4.05801e-06
-4.06368e-06
-4.0692e-06
-4.07457e-06
-4.07979e-06
-4.08488e-06
-4.08982e-06
-4.09463e-06
-4.0993e-06
-4.10385e-06
-4.10827e-06
-4.11256e-06
-4.11673e-06
-4.12078e-06
-4.12472e-06
-4.12854e-06
-4.13225e-06
-4.13585e-06
-4.13935e-06
-4.14274e-06
-4.14603e-06
-4.14923e-06
-4.15232e-06
-4.15532e-06
-4.15823e-06
-4.16105e-06
-4.16378e-06
-4.16643e-06
-4.16899e-06
-4.17147e-06
-4.17387e-06
-4.1762e-06
-4.17846e-06
-4.18065e-06
-4.18276e-06
-4.18481e-06
-4.18679e-06
-4.1887e-06
-4.19056e-06
-4.19235e-06
-4.19407e-06
-4.19573e-06
-4.19733e-06
-4.19889e-06
-4.20039e-06
-4.20184e-06
-4.20323e-06
-4.20457e-06
-4.20587e-06
-4.2071e-06
-4.20831e-06
-4.20948e-06
-4.21061e-06
-4.2117e-06
-4.21275e-06
-4.21376e-06
-4.21473e-06
-4.21567e-06
-4.21657e-06
-4.21744e-06
-4.21828e-06
-4.21908e-06
-4.21985e-06
-4.2206e-06
-4.22131e-06
-4.222e-06
-4.22267e-06
-4.22331e-06
-4.22392e-06
-4.22451e-06
-4.22508e-06
-4.22562e-06
-4.22614e-06
-4.22664e-06
-4.22712e-06
-4.22758e-06
-4.22802e-06
-4.22844e-06
-4.22885e-06
-4.22924e-06
-4.22961e-06
-4.22997e-06
-4.23032e-06
-4.23064e-06
-4.23096e-06
-4.23126e-06
-4.23155e-06
-4.23183e-06
-4.23209e-06
-4.23234e-06
-4.23259e-06
-4.23282e-06
-4.23304e-06
-4.23325e-06
-4.23345e-06
-4.23364e-06
-4.23383e-06
-4.234e-06
-4.23417e-06
-4.23433e-06
-4.23448e-06
-4.23463e-06
-4.23477e-06
-4.2349e-06
-4.23503e-06
-4.23515e-06
-4.23526e-06
-4.23537e-06
-4.23547e-06
-4.23557e-06
-4.23567e-06
-4.23576e-06
-4.23584e-06
-4.23592e-06
-4.236e-06
-4.23607e-06
-4.23614e-06
-4.2362e-06
-4.23626e-06
-4.23632e-06
-4.23638e-06
-4.23643e-06
-4.23648e-06
-4.23653e-06
-4.23657e-06
-4.23661e-06
-4.23665e-06
-4.23669e-06
-4.23673e-06
-4.23676e-06
-4.23679e-06
-4.23682e-06
-4.23685e-06
-4.23687e-06
-4.2369e-06
-4.23692e-06
-4.23694e-06
-4.23696e-06
-4.23698e-06
-4.237e-06
-4.23701e-06
-4.23703e-06
-4.23704e-06
-4.23705e-06
-4.23707e-06
-4.23708e-06
-4.23709e-06
-4.2371e-06
-4.23711e-06
-4.23712e-06
-4.23712e-06
-4.23713e-06
-4.23714e-06
-4.23714e-06
-4.23715e-06
-4.23715e-06
-4.23715e-06
-4.23716e-06
-4.23716e-06
-4.23716e-06
-4.23716e-06
-4.23717e-06
-4.23717e-06
-4.23717e-06
-4.23717e-06
-4.23717e-06
-4.23717e-06
-4.23717e-06
-4.23717e-06
-4.23717e-06
-4.23717e-06
-4.23717e-06
-4.23717e-06
-4.23717e-06
-4.23717e-06
-4.23717e-06
-4.23717e-06
-4.23717e-06
-4.23717e-06
-4.23716e-06
-4.23716e-06
-4.23716e-06
-4.23716e-06
-4.23716e-06
-4.23716e-06
-4.23715e-06
-4.23715e-06
-4.23715e-06
-4.23715e-06
-4.23715e-06
-4.23714e-06
-4.23714e-06
-4.23714e-06
-4.23714e-06
-4.23714e-06
-4.23713e-06
-4.23713e-06
-4.23713e-06
-4.23713e-06
-4.23713e-06
-4.23713e-06
-4.23713e-06
-4.23712e-06
-4.23712e-06
-4.23712e-06
-4.23712e-06
-4.23712e-06
-4.23712e-06
-4.23712e-06
-4.23711e-06
-4.23711e-06
-4.23711e-06
-4.23711e-06
-4.23711e-06
-4.23711e-06
-4.23711e-06
-4.23711e-06
-4.23711e-06
-4.23711e-06
-4.23711e-06
-4.2371e-06
-4.2371e-06
-4.2371e-06
-4.2371e-06
-4.2371e-06
-4.2371e-06
-4.2371e-06
-4.2371e-06
-4.2371e-06
-4.2371e-06
-4.2371e-06
-4.2371e-06
-4.2371e-06
-4.2371e-06
-4.2371e-06
-4.2371e-06
-4.2371e-06
-4.2371e-06
-4.2371e-06
-4.2371e-06
-4.23709e-06
-4.2371e-06
-4.2371e-06
-4.2371e-06
-4.2371e-06
-4.2371e-06
-4.2371e-06
-4.2371e-06
-4.2371e-06
-4.2371e-06
-4.2371e-06
-4.2371e-06
-4.2371e-06
-4.2371e-06
-4.2371e-06
-4.2371e-06
-4.2371e-06
-4.2371e-06
-4.2371e-06
-4.2371e-06
-4.2371e-06
-4.2371e-06
-4.2371e-06
-4.2371e-06
-4.2371e-06
-4.2371e-06
-4.2371e-06
-4.2371e-06
-4.2371e-06
-4.23711e-06
-4.23711e-06
-4.23711e-06
-4.23711e-06
-4.23711e-06
-4.23711e-06
-4.23711e-06
-4.23711e-06
-4.23711e-06
-4.23711e-06
-4.23711e-06
-4.23711e-06
-4.23711e-06
-4.23711e-06
-4.23711e-06
-4.23711e-06
-4.23711e-06
-4.23711e-06
-4.23711e-06
-4.23711e-06
-4.23711e-06
-4.23711e-06
-4.23711e-06
-4.23711e-06
-4.23712e-06
-4.23711e-06
-4.23712e-06
-4.23712e-06
-4.23712e-06
-4.23712e-06
-4.23712e-06
-4.23712e-06
-4.23712e-06
-4.23712e-06
-4.23712e-06
-4.23712e-06
-4.23712e-06
-4.23712e-06
-4.23712e-06
-4.23712e-06
-4.23712e-06
-4.23712e-06
-4.23712e-06
-4.23712e-06
-4.23712e-06
-4.23712e-06
-4.23712e-06
-4.23712e-06
-4.23712e-06
-4.23712e-06
-4.23712e-06
-4.23712e-06
-4.23712e-06
-4.23712e-06
-4.23712e-06
-4.23712e-06
-4.23712e-06
-4.23712e-06
-4.23712e-06
-4.23712e-06
-4.23712e-06
-4.23712e-06
-4.23712e-06
-4.23712e-06
-4.23712e-06
-4.23712e-06
-4.23712e-06
-4.23712e-06
-4.23712e-06
-4.23712e-06
-4.23712e-06
-4.23712e-06
-4.23712e-06
-4.23712e-06
-4.23712e-06
-4.23712e-06
-4.23712e-06
-4.23712e-06
-4.23712e-06
-4.23712e-06
-4.23712e-06
-4.23712e-06
-4.23712e-06
-4.23712e-06
-4.23712e-06
-4.23712e-06
-4.23712e-06
-4.23712e-06
-4.23712e-06
-4.23712e-06
-4.23712e-06
-4.23712e-06
-4.23712e-06
-4.23712e-06
-4.23712e-06
-4.23712e-06
-4.23712e-06
-4.23712e-06
-4.23712e-06
-4.23712e-06
-4.23712e-06
-4.23711e-06
-4.23711e-06
-4.23712e-06
-4.23711e-06
-4.23711e-06
-4.23711e-06
-4.23711e-06
-4.23711e-06
-4.23711e-06
-4.23711e-06
-4.23711e-06
-4.23711e-06
-4.23711e-06
-4.23711e-06
-4.23711e-06
-4.23711e-06
-4.23711e-06
-4.23711e-06
-4.23711e-06
-4.23711e-06
-4.23711e-06
-4.23711e-06
-4.23711e-06
-4.23711e-06
-4.23711e-06
-4.23711e-06
-4.23711e-06
-4.23711e-06
-4.23711e-06
-4.23711e-06
-4.23711e-06
-4.2371e-06
-4.2371e-06
-4.2371e-06
-4.2371e-06
-4.2371e-06
-4.2371e-06
-4.2371e-06
-4.2371e-06
-4.2371e-06
-4.2371e-06
-4.2371e-06
-4.2371e-06
-4.2371e-06
-4.2371e-06
-4.2371e-06
-4.23709e-06
-4.23709e-06
-4.23709e-06
-4.23709e-06
-4.23709e-06
-4.23709e-06
-4.23709e-06
-4.23709e-06
-4.23709e-06
-4.23709e-06
-4.23709e-06
-4.23709e-06
-4.23709e-06
-4.23709e-06
-4.23709e-06
-4.23709e-06
-4.23709e-06
-4.23709e-06
-4.23708e-06
-4.23709e-06
-4.23708e-06
-4.23708e-06
-4.23708e-06
-4.23709e-06
-4.23709e-06
-4.23708e-06
-4.23708e-06
-4.23709e-06
-4.23709e-06
-4.23708e-06
-4.23708e-06
-4.23708e-06
-4.23708e-06
-4.23708e-06
-4.23708e-06
-4.23708e-06
-4.23708e-06
-4.23708e-06
-4.23708e-06
-4.23708e-06
-4.23708e-06
-4.23708e-06
-4.23708e-06
-4.23708e-06
-4.23708e-06
-4.23708e-06
-4.23708e-06
-4.23708e-06
-4.23708e-06
-4.23708e-06
-4.23708e-06
-4.23708e-06
-4.23708e-06
-4.23708e-06
-4.23708e-06
-4.23708e-06
-4.23708e-06
-4.23708e-06
-4.23708e-06
-4.23708e-06
-4.23709e-06
-4.23708e-06
-4.23708e-06
-4.23708e-06
-4.23708e-06
-4.23708e-06
-4.23708e-06
-4.23708e-06
-4.23708e-06
-4.23708e-06
-4.23708e-06
-4.23708e-06
-4.23708e-06
-4.23708e-06
-4.23708e-06
-4.23708e-06
-4.23708e-06
-4.23708e-06
-4.23708e-06
-4.23708e-06
-4.23708e-06
-4.23708e-06
-4.23708e-06
-4.23708e-06
-4.23708e-06
-4.23708e-06
-4.23708e-06
-4.23708e-06
-4.23707e-06
-4.23707e-06
-4.23707e-06
-4.23707e-06
-4.23707e-06
-4.23707e-06
-4.23707e-06
-4.23707e-06
-4.23707e-06
-4.23707e-06
-4.23707e-06
-4.23707e-06
-4.23707e-06
-4.23707e-06
-4.23707e-06
-4.23707e-06
-4.23707e-06
-4.23707e-06
-4.23707e-06
-4.23706e-06
-4.23706e-06
-4.23706e-06
-4.23706e-06
-4.23706e-06
-4.23706e-06
-4.23706e-06
-4.23706e-06
-4.23706e-06
-4.23706e-06
-4.23706e-06
-4.23706e-06
-4.23706e-06
-4.23706e-06
-4.23706e-06
-4.23705e-06
-4.23705e-06
-4.23705e-06
-4.23705e-06
-4.23705e-06
-4.23705e-06
-4.23705e-06
-4.23705e-06
-4.23705e-06
-4.23705e-06
-4.23705e-06
-4.23705e-06
-4.23705e-06
-4.23705e-06
-4.23705e-06
-4.23706e-06
-4.23706e-06
-4.23706e-06
-4.23706e-06
-4.23706e-06
-4.23706e-06
-4.23706e-06
-4.23706e-06
-4.23707e-06
-4.23707e-06
-4.23707e-06
-4.23707e-06
-4.23708e-06
-4.23708e-06
-4.23708e-06
-4.23709e-06
-4.23709e-06
-4.2371e-06
-4.2371e-06
-4.23711e-06
-4.23711e-06
-4.23712e-06
-4.23712e-06
-4.23713e-06
-4.23714e-06
-4.23715e-06
-4.23715e-06
-4.23716e-06
-4.23717e-06
-4.23719e-06
-4.2372e-06
-4.23721e-06
-4.23723e-06
-4.23724e-06
-4.23726e-06
-4.23728e-06
-4.23729e-06
-4.23731e-06
-4.23734e-06
-4.23736e-06
-4.23738e-06
-4.23741e-06
-4.23744e-06
-4.23747e-06
-4.2375e-06
-4.23754e-06
-4.23758e-06
-4.23762e-06
-4.23766e-06
-4.2377e-06
-4.23775e-06
-4.2378e-06
-4.23786e-06
-4.23792e-06
-4.23798e-06
-4.23805e-06
-4.23812e-06
-4.2382e-06
-4.23828e-06
-4.23836e-06
-4.23846e-06
-4.23856e-06
-4.23866e-06
-4.23877e-06
-4.23889e-06
-4.23902e-06
-4.23915e-06
-4.23929e-06
-4.23944e-06
-4.23961e-06
-4.23978e-06
-4.23996e-06
-4.24015e-06
-4.24036e-06
-4.24058e-06
-4.24081e-06
-4.24105e-06
-4.24131e-06
-4.24159e-06
-4.24188e-06
-4.24219e-06
-4.24252e-06
-4.24287e-06
-4.24324e-06
-4.24363e-06
-4.24404e-06
-4.24448e-06
-4.24494e-06
-4.24543e-06
-4.24595e-06
-4.24649e-06
-4.24707e-06
-4.24768e-06
-4.24832e-06
-4.249e-06
-4.24972e-06
-4.25048e-06
-4.25128e-06
-4.25212e-06
-4.25301e-06
-4.25394e-06
-4.25493e-06
-4.25597e-06
-4.25706e-06
-4.25821e-06
-4.25942e-06
-4.2607e-06
-4.26204e-06
-4.26344e-06
-4.26492e-06
-4.26648e-06
-4.26811e-06
-4.26983e-06
-4.27163e-06
-4.27352e-06
-4.2755e-06
-4.27758e-06
-4.27977e-06
-4.28205e-06
-4.28445e-06
-4.28696e-06
-4.28959e-06
-4.29234e-06
-4.29522e-06
-4.29823e-06
-4.30139e-06
-4.30468e-06
-4.30813e-06
-4.31173e-06
-4.3155e-06
-4.31943e-06
-4.32353e-06
-4.32782e-06
-4.33228e-06
-4.33695e-06
-4.34181e-06
-4.34688e-06
-4.35217e-06
-4.35767e-06
-4.36341e-06
-4.36938e-06
-4.3756e-06
-4.38207e-06
-4.3888e-06
-4.3958e-06
-4.40308e-06
-4.41065e-06
-4.41851e-06
-4.42668e-06
-4.43517e-06
-4.44398e-06
-4.45312e-06
-4.4626e-06
-4.47245e-06
-4.48265e-06
-4.49323e-06
-4.5042e-06
-4.51556e-06
-4.52733e-06
-4.53953e-06
-4.55215e-06
-4.56521e-06
-4.57872e-06
-4.5927e-06
-4.60716e-06
-4.6221e-06
-4.63755e-06
-4.65351e-06
-4.67e-06
-4.68703e-06
-4.7046e-06
-4.72275e-06
-4.74147e-06
-4.76078e-06
-4.7807e-06
-4.80124e-06
-4.82241e-06
-4.84423e-06
-4.86671e-06
-4.88987e-06
-4.91371e-06
-4.93826e-06
-4.96352e-06
-4.98952e-06
-5.01626e-06
-5.04377e-06
-5.07206e-06
-5.10113e-06
-5.13102e-06
-5.16172e-06
-5.19327e-06
-5.22567e-06
-5.25894e-06
-5.29309e-06
-5.32814e-06
-5.36411e-06
-5.40102e-06
-5.43887e-06
-5.47769e-06
-5.51749e-06
-5.55828e-06
-5.60009e-06
-5.64293e-06
-5.68682e-06
-5.73178e-06
-5.77781e-06
-5.82495e-06
-5.8732e-06
-5.92258e-06
-5.97311e-06
-6.02481e-06
-6.07769e-06
-6.13178e-06
-6.18709e-06
-6.24364e-06
-6.30144e-06
-6.36053e-06
-6.4209e-06
-6.48259e-06
-6.54562e-06
-6.60999e-06
-6.67574e-06
-6.74288e-06
-6.81143e-06
-6.88141e-06
-6.95284e-06
-7.02575e-06
-7.10016e-06
-7.17607e-06
-7.25353e-06
-7.33255e-06
-7.41315e-06
-7.49536e-06
-7.5792e-06
-7.66469e-06
-7.75187e-06
-7.84075e-06
-7.93136e-06
-8.02373e-06
-8.11789e-06
-8.21386e-06
-8.31167e-06
-8.41136e-06
-8.51295e-06
-8.61647e-06
-8.72196e-06
-8.82946e-06
-8.93898e-06
-9.05058e-06
-9.16427e-06
-9.28012e-06
-9.39814e-06
-9.51839e-06
-9.64089e-06
-9.76571e-06
-9.89288e-06
-1.00225e-05
-1.01545e-05
-1.02891e-05
-1.04263e-05
-1.05661e-05
-1.07088e-05
-1.08531e-05
-1.10004e-05
-1.11507e-05
-1.1304e-05
-1.14604e-05
-1.162e-05
-1.17827e-05
-1.19486e-05
-1.21177e-05
-1.22901e-05
-1.24659e-05
-1.2645e-05
-1.28275e-05
-1.30136e-05
-1.32031e-05
-1.33962e-05
-1.35928e-05
-1.3793e-05
-1.39967e-05
-1.4204e-05
-1.44146e-05
-1.46286e-05
-1.48457e-05
-1.50658e-05
-1.52886e-05
-1.55138e-05
-1.57409e-05
-1.59693e-05
-1.61986e-05
-1.64277e-05
-1.66558e-05
-1.68817e-05
-1.71039e-05
-1.73207e-05
-1.75302e-05
-1.77299e-05
-1.7917e-05
-1.80881e-05
-1.82396e-05
-1.83669e-05
-1.84651e-05
-1.85286e-05
)
;

boundaryField
{
    fixedWall
    {
        type            calculated;
        value           uniform 0;
    }
    outlet
    {
        type            calculated;
        value           uniform -1.85512e-05;
    }
    defaultFaces
    {
        type            empty;
    }
}


// ************************************************************************* //
