/*--------------------------------*- C++ -*----------------------------------*\
| =========                 |                                                 |
| \\      /  F ield         | OpenFOAM: The Open Source CFD Toolbox           |
|  \\    /   O peration     | Version:  2406                                  |
|   \\  /    A nd           | Website:  www.openfoam.com                      |
|    \\/     M anipulation  |                                                 |
\*---------------------------------------------------------------------------*/
FoamFile
{
    version     2.0;
    format      ascii;
    arch        "LSB;label=32;scalar=64";
    class       volScalarField;
    location    "13.8";
    object      T;
}
// * * * * * * * * * * * * * * * * * * * * * * * * * * * * * * * * * * * * * //

dimensions      [0 0 0 1 0 0 0];

internalField   nonuniform List<scalar> 
1000
(
303.883
324.166
343.126
360.953
377.794
393.764
408.958
423.453
437.316
450.602
463.358
475.625
487.44
498.834
509.834
520.466
530.752
540.712
550.363
559.722
568.804
577.622
586.189
594.516
602.614
610.491
618.158
625.623
632.893
639.976
646.877
653.605
660.164
666.561
672.8
678.887
684.826
690.621
696.278
701.8
707.19
712.453
717.592
722.611
727.511
732.298
736.973
741.539
745.999
750.356
754.611
758.769
762.83
766.797
770.673
774.458
778.157
781.769
785.298
788.745
792.112
795.401
798.613
801.75
804.814
807.806
810.728
813.581
816.367
819.086
821.742
824.334
826.865
829.335
831.746
834.099
836.395
838.636
840.822
842.955
845.035
847.065
849.045
850.975
852.858
854.694
856.484
858.229
859.93
861.588
863.204
864.778
866.313
867.808
869.264
870.682
872.064
873.409
874.719
875.994
877.235
878.444
879.62
880.764
881.878
882.961
884.015
885.04
886.036
887.005
887.948
888.864
889.754
890.619
891.46
892.277
893.07
893.841
894.59
895.317
896.022
896.707
897.372
898.018
898.644
899.251
899.84
900.412
900.966
901.504
902.025
902.53
903.019
903.493
903.953
904.398
904.829
905.247
905.651
906.043
906.422
906.788
907.143
907.486
907.819
908.14
908.45
908.751
909.041
909.322
909.593
909.855
910.108
910.353
910.589
910.817
911.037
911.249
911.455
911.652
911.843
912.028
912.205
912.376
912.542
912.701
912.854
913.002
913.145
913.282
913.414
913.541
913.664
913.781
913.895
914.004
914.109
914.21
914.307
914.401
914.491
914.577
914.66
914.74
914.816
914.89
914.96
915.028
915.093
915.156
915.216
915.273
915.328
915.381
915.432
915.48
915.527
915.572
915.615
915.656
915.695
915.733
915.769
915.803
915.836
915.867
915.898
915.927
915.954
915.981
916.006
916.03
916.053
916.075
916.096
916.116
916.135
916.153
916.171
916.187
916.203
916.218
916.232
916.246
916.259
916.272
916.283
916.295
916.305
916.315
916.325
916.334
916.343
916.351
916.359
916.367
916.374
916.381
916.387
916.393
916.399
916.404
916.41
916.415
916.419
916.424
916.428
916.432
916.435
916.439
916.442
916.446
916.449
916.451
916.454
916.456
916.459
916.461
916.463
916.465
916.467
916.469
916.47
916.472
916.473
916.475
916.476
916.477
916.479
916.48
916.481
916.482
916.482
916.483
916.484
916.485
916.485
916.486
916.487
916.487
916.488
916.488
916.489
916.489
916.49
916.49
916.49
916.491
916.491
916.491
916.492
916.492
916.492
916.492
916.493
916.493
916.493
916.493
916.494
916.494
916.494
916.494
916.494
916.494
916.495
916.495
916.495
916.495
916.495
916.495
916.495
916.496
916.496
916.496
916.496
916.496
916.496
916.496
916.496
916.497
916.497
916.497
916.497
916.497
916.497
916.497
916.498
916.498
916.498
916.498
916.498
916.498
916.498
916.499
916.499
916.499
916.499
916.499
916.499
916.5
916.5
916.5
916.5
916.5
916.5
916.501
916.501
916.501
916.501
916.501
916.501
916.502
916.502
916.502
916.502
916.502
916.502
916.503
916.503
916.503
916.503
916.503
916.503
916.504
916.504
916.504
916.504
916.504
916.504
916.505
916.505
916.505
916.505
916.505
916.505
916.506
916.506
916.506
916.506
916.506
916.506
916.507
916.507
916.507
916.507
916.507
916.507
916.507
916.508
916.508
916.508
916.508
916.508
916.508
916.508
916.509
916.509
916.509
916.509
916.509
916.509
916.509
916.509
916.51
916.51
916.51
916.51
916.51
916.51
916.51
916.51
916.51
916.511
916.511
916.511
916.511
916.511
916.511
916.511
916.511
916.511
916.511
916.511
916.512
916.512
916.512
916.512
916.512
916.512
916.512
916.512
916.512
916.512
916.512
916.512
916.512
916.513
916.513
916.513
916.513
916.513
916.513
916.513
916.513
916.513
916.513
916.513
916.513
916.513
916.513
916.513
916.513
916.513
916.514
916.514
916.514
916.514
916.514
916.514
916.514
916.514
916.514
916.514
916.514
916.514
916.514
916.514
916.514
916.514
916.514
916.514
916.514
916.514
916.514
916.514
916.514
916.514
916.515
916.515
916.515
916.515
916.515
916.515
916.515
916.515
916.515
916.515
916.515
916.515
916.515
916.515
916.515
916.515
916.515
916.515
916.515
916.515
916.515
916.515
916.515
916.515
916.515
916.515
916.515
916.515
916.515
916.515
916.515
916.515
916.515
916.515
916.515
916.516
916.516
916.516
916.516
916.516
916.516
916.516
916.516
916.516
916.516
916.516
916.516
916.516
916.516
916.516
916.516
916.516
916.516
916.516
916.516
916.516
916.516
916.516
916.516
916.516
916.516
916.516
916.516
916.516
916.516
916.516
916.516
916.516
916.516
916.516
916.516
916.516
916.516
916.516
916.517
916.517
916.517
916.517
916.517
916.517
916.517
916.517
916.517
916.517
916.517
916.517
916.517
916.517
916.517
916.517
916.517
916.517
916.517
916.517
916.517
916.517
916.517
916.517
916.517
916.517
916.517
916.517
916.517
916.517
916.517
916.517
916.517
916.517
916.517
916.517
916.517
916.518
916.518
916.518
916.518
916.518
916.518
916.518
916.518
916.518
916.518
916.518
916.518
916.518
916.518
916.518
916.518
916.518
916.518
916.518
916.518
916.518
916.518
916.518
916.518
916.518
916.518
916.518
916.518
916.518
916.518
916.518
916.518
916.518
916.518
916.518
916.518
916.518
916.518
916.518
916.518
916.518
916.518
916.518
916.518
916.518
916.518
916.518
916.518
916.518
916.518
916.518
916.518
916.518
916.518
916.518
916.518
916.518
916.518
916.518
916.518
916.518
916.518
916.518
916.518
916.518
916.518
916.518
916.518
916.518
916.518
916.518
916.518
916.518
916.518
916.518
916.518
916.518
916.518
916.518
916.518
916.518
916.518
916.518
916.518
916.518
916.518
916.518
916.518
916.518
916.518
916.518
916.518
916.518
916.518
916.518
916.519
916.519
916.519
916.519
916.519
916.519
916.519
916.519
916.519
916.519
916.519
916.519
916.519
916.519
916.519
916.519
916.519
916.519
916.519
916.519
916.519
916.519
916.519
916.519
916.519
916.519
916.518
916.518
916.518
916.518
916.518
916.518
916.518
916.518
916.518
916.518
916.518
916.518
916.517
916.517
916.517
916.517
916.517
916.517
916.516
916.516
916.516
916.515
916.515
916.515
916.514
916.514
916.514
916.513
916.512
916.512
916.511
916.511
916.51
916.509
916.508
916.508
916.507
916.506
916.505
916.503
916.502
916.501
916.5
916.498
916.496
916.495
916.493
916.491
916.489
916.487
916.484
916.482
916.479
916.476
916.473
916.47
916.466
916.463
916.459
916.455
916.45
916.445
916.44
916.435
916.429
916.423
916.417
916.41
916.402
916.395
916.386
916.378
916.368
916.358
916.348
916.337
916.325
916.313
916.3
916.286
916.271
916.255
916.239
916.221
916.203
916.183
916.162
916.141
916.118
916.093
916.068
916.04
916.012
915.982
915.95
915.916
915.881
915.844
915.805
915.763
915.72
915.674
915.626
915.576
915.523
915.467
915.408
915.347
915.282
915.214
915.143
915.069
914.99
914.908
914.822
914.732
914.638
914.539
914.436
914.328
914.215
914.097
913.973
913.844
913.709
913.568
913.421
913.267
913.107
912.94
912.766
912.585
912.395
912.198
911.993
911.779
911.557
911.326
911.085
910.835
910.575
910.304
910.023
909.732
909.429
909.115
908.789
908.45
908.1
907.736
907.359
906.969
906.564
906.146
905.712
905.263
904.799
904.319
903.823
903.31
902.78
902.232
901.666
901.081
900.478
899.856
899.213
898.551
897.867
897.163
896.437
895.688
894.917
894.123
893.305
892.463
891.596
890.704
889.787
888.843
887.872
886.874
885.847
884.793
883.709
882.595
881.451
880.276
879.069
877.83
876.559
875.253
873.913
872.539
871.128
869.681
868.197
866.675
865.114
863.513
861.872
860.19
858.465
856.697
854.885
853.028
851.125
849.175
847.176
845.129
843.03
840.88
838.677
836.42
834.108
831.738
829.31
826.823
824.273
821.661
818.985
816.242
813.431
810.55
807.597
804.57
801.467
798.286
795.025
791.681
788.251
784.734
781.126
777.425
773.628
769.732
765.734
761.631
757.42
753.096
748.656
744.098
739.416
734.607
729.667
724.592
719.376
714.016
708.526
702.914
697.094
691.11
684.958
678.632
672.127
665.436
658.556
651.479
644.201
636.716
629.019
621.103
612.965
604.599
596
587.165
578.088
568.768
559.2
549.383
539.317
528.999
518.433
507.62
496.564
485.271
473.748
462.004
450.053
437.907
425.586
413.108
400.498
387.783
374.994
362.167
349.34
336.559
323.872
311.336
299.01
)
;

boundaryField
{
    fixedWall
    {
        type            fixedValue;
        value           uniform 293;
    }
    outlet
    {
        type            inletOutlet;
        inletValue      uniform 293;
        value           uniform 293;
    }
    defaultFaces
    {
        type            empty;
    }
}


// ************************************************************************* //
