/*--------------------------------*- C++ -*----------------------------------*\
| =========                 |                                                 |
| \\      /  F ield         | OpenFOAM: The Open Source CFD Toolbox           |
|  \\    /   O peration     | Version:  2406                                  |
|   \\  /    A nd           | Website:  www.openfoam.com                      |
|    \\/     M anipulation  |                                                 |
\*---------------------------------------------------------------------------*/
FoamFile
{
    version     2.0;
    format      ascii;
    arch        "LSB;label=32;scalar=64";
    class       volScalarField;
    location    "7.5";
    object      T;
}
// * * * * * * * * * * * * * * * * * * * * * * * * * * * * * * * * * * * * * //

dimensions      [0 0 0 1 0 0 0];

internalField   nonuniform List<scalar> 
1000
(
307.973
335.197
360.118
383.148
404.584
424.652
443.527
461.35
478.232
494.269
509.539
524.109
538.035
551.366
564.147
576.415
588.203
599.54
610.454
620.967
631.103
640.879
650.314
659.425
668.225
676.729
684.95
692.899
700.588
708.026
715.223
722.188
728.929
735.455
741.773
747.89
753.813
759.547
765.1
770.477
775.684
780.725
785.606
790.332
794.908
799.337
803.625
807.775
811.792
815.679
819.44
823.079
826.599
830.004
833.297
836.481
839.559
842.535
845.411
848.19
850.875
853.469
855.974
858.393
860.728
862.982
865.157
867.256
869.28
871.233
873.115
874.93
876.679
878.364
879.987
881.55
883.055
884.504
885.898
887.24
888.53
889.771
890.964
892.11
893.212
894.27
895.286
896.261
897.198
898.096
898.958
899.784
900.577
901.336
902.064
902.761
903.428
904.067
904.678
905.263
905.823
906.358
906.869
907.358
907.824
908.27
908.696
909.102
909.489
909.858
910.211
910.546
910.866
911.171
911.461
911.737
912
912.25
912.488
912.714
912.928
913.132
913.326
913.509
913.684
913.849
914.006
914.155
914.296
914.429
914.555
914.674
914.788
914.895
914.996
915.092
915.182
915.268
915.349
915.425
915.497
915.564
915.628
915.688
915.745
915.798
915.848
915.896
915.94
915.982
916.021
916.058
916.092
916.125
916.155
916.183
916.21
916.235
916.258
916.28
916.3
916.319
916.337
916.354
916.369
916.384
916.397
916.409
916.421
916.432
916.442
916.451
916.459
916.467
916.475
916.481
916.487
916.493
916.498
916.503
916.508
916.512
916.515
916.518
916.521
916.524
916.527
916.529
916.531
916.532
916.534
916.535
916.536
916.537
916.538
916.539
916.539
916.54
916.54
916.54
916.54
916.54
916.54
916.54
916.54
916.539
916.539
916.539
916.538
916.538
916.537
916.536
916.536
916.535
916.534
916.533
916.533
916.532
916.531
916.53
916.529
916.528
916.528
916.527
916.526
916.525
916.524
916.523
916.522
916.521
916.52
916.519
916.518
916.517
916.516
916.515
916.515
916.514
916.513
916.512
916.511
916.51
916.509
916.508
916.507
916.507
916.506
916.505
916.504
916.503
916.502
916.502
916.501
916.5
916.499
916.499
916.498
916.497
916.496
916.496
916.495
916.494
916.494
916.493
916.493
916.492
916.492
916.491
916.49
916.49
916.489
916.489
916.488
916.488
916.488
916.487
916.487
916.486
916.486
916.486
916.485
916.485
916.485
916.484
916.484
916.484
916.484
916.484
916.483
916.483
916.483
916.483
916.483
916.483
916.483
916.483
916.482
916.482
916.482
916.482
916.482
916.482
916.483
916.483
916.483
916.483
916.483
916.483
916.483
916.483
916.483
916.484
916.484
916.484
916.484
916.484
916.485
916.485
916.485
916.485
916.486
916.486
916.486
916.487
916.487
916.487
916.488
916.488
916.488
916.489
916.489
916.489
916.49
916.49
916.491
916.491
916.491
916.492
916.492
916.493
916.493
916.494
916.494
916.494
916.495
916.495
916.496
916.496
916.497
916.497
916.497
916.498
916.498
916.499
916.499
916.5
916.5
916.5
916.501
916.501
916.502
916.502
916.503
916.503
916.503
916.504
916.504
916.504
916.505
916.505
916.506
916.506
916.506
916.507
916.507
916.507
916.507
916.508
916.508
916.508
916.509
916.509
916.509
916.509
916.51
916.51
916.51
916.51
916.51
916.51
916.511
916.511
916.511
916.511
916.511
916.511
916.511
916.511
916.512
916.512
916.512
916.512
916.512
916.512
916.512
916.512
916.512
916.512
916.512
916.512
916.512
916.512
916.512
916.512
916.512
916.512
916.512
916.512
916.512
916.512
916.512
916.512
916.512
916.512
916.512
916.512
916.512
916.512
916.512
916.512
916.512
916.512
916.512
916.512
916.512
916.512
916.512
916.512
916.512
916.512
916.512
916.512
916.512
916.512
916.512
916.512
916.512
916.512
916.512
916.512
916.512
916.512
916.512
916.512
916.512
916.512
916.512
916.512
916.512
916.512
916.512
916.512
916.512
916.512
916.512
916.513
916.513
916.513
916.513
916.513
916.513
916.513
916.513
916.513
916.513
916.513
916.513
916.513
916.514
916.514
916.514
916.514
916.514
916.514
916.514
916.514
916.514
916.514
916.514
916.514
916.514
916.515
916.515
916.515
916.515
916.515
916.515
916.515
916.515
916.515
916.515
916.515
916.515
916.515
916.515
916.515
916.515
916.515
916.515
916.515
916.515
916.515
916.515
916.515
916.515
916.515
916.515
916.515
916.515
916.515
916.515
916.515
916.515
916.515
916.515
916.515
916.515
916.515
916.515
916.515
916.515
916.515
916.515
916.514
916.514
916.514
916.514
916.514
916.514
916.514
916.514
916.514
916.514
916.514
916.514
916.514
916.514
916.514
916.514
916.513
916.513
916.513
916.513
916.513
916.513
916.513
916.513
916.513
916.513
916.513
916.513
916.513
916.513
916.513
916.513
916.513
916.513
916.513
916.513
916.513
916.513
916.513
916.513
916.513
916.514
916.514
916.514
916.514
916.514
916.514
916.514
916.514
916.514
916.514
916.515
916.515
916.515
916.515
916.515
916.515
916.515
916.516
916.516
916.516
916.516
916.516
916.516
916.517
916.517
916.517
916.517
916.517
916.517
916.517
916.518
916.518
916.518
916.518
916.518
916.518
916.518
916.519
916.519
916.519
916.519
916.519
916.519
916.519
916.519
916.519
916.519
916.52
916.52
916.52
916.52
916.52
916.52
916.52
916.52
916.52
916.52
916.52
916.52
916.52
916.52
916.52
916.52
916.52
916.52
916.52
916.519
916.519
916.519
916.519
916.519
916.519
916.519
916.519
916.519
916.519
916.519
916.518
916.518
916.518
916.518
916.518
916.518
916.518
916.517
916.517
916.517
916.517
916.517
916.516
916.516
916.516
916.516
916.516
916.516
916.515
916.515
916.515
916.515
916.515
916.514
916.514
916.514
916.514
916.513
916.513
916.513
916.513
916.513
916.512
916.512
916.512
916.512
916.512
916.512
916.511
916.511
916.511
916.511
916.511
916.511
916.511
916.511
916.511
916.511
916.511
916.51
916.51
916.51
916.511
916.511
916.511
916.511
916.511
916.511
916.511
916.511
916.511
916.512
916.512
916.512
916.512
916.513
916.513
916.513
916.513
916.514
916.514
916.515
916.515
916.515
916.516
916.516
916.517
916.517
916.518
916.518
916.519
916.519
916.519
916.52
916.52
916.521
916.521
916.522
916.522
916.523
916.523
916.524
916.524
916.525
916.525
916.525
916.526
916.526
916.527
916.527
916.527
916.528
916.528
916.528
916.528
916.528
916.529
916.529
916.529
916.529
916.529
916.529
916.529
916.529
916.529
916.528
916.528
916.528
916.528
916.528
916.527
916.527
916.527
916.526
916.526
916.525
916.525
916.525
916.524
916.524
916.523
916.522
916.522
916.521
916.521
916.52
916.519
916.519
916.518
916.517
916.517
916.516
916.515
916.515
916.514
916.513
916.513
916.512
916.512
916.511
916.51
916.51
916.509
916.509
916.508
916.508
916.507
916.507
916.506
916.506
916.505
916.505
916.505
916.504
916.504
916.504
916.504
916.503
916.503
916.503
916.503
916.503
916.503
916.503
916.503
916.503
916.503
916.503
916.503
916.503
916.503
916.503
916.503
916.504
916.504
916.504
916.504
916.504
916.505
916.505
916.505
916.505
916.505
916.506
916.506
916.506
916.506
916.507
916.507
916.507
916.507
916.507
916.508
916.508
916.508
916.508
916.508
916.508
916.508
916.508
916.508
916.508
916.508
916.508
916.508
916.508
916.508
916.508
916.508
916.508
916.508
916.508
916.507
916.507
916.507
916.507
916.506
916.506
916.506
916.505
916.505
916.504
916.504
916.503
916.502
916.502
916.501
916.5
916.499
916.497
916.496
916.494
916.492
916.49
916.487
916.484
916.481
916.477
916.473
916.467
916.461
916.455
916.447
916.438
916.427
916.415
916.402
916.386
916.368
916.347
916.324
916.297
916.267
916.232
916.192
916.147
916.097
916.039
915.974
915.9
915.817
915.723
915.618
915.499
915.367
915.218
915.051
914.866
914.658
914.427
914.171
913.886
913.569
913.22
912.833
912.406
911.936
911.418
910.85
910.226
909.543
908.797
907.981
907.092
906.124
905.072
903.93
902.691
901.351
899.903
898.339
896.654
894.839
892.887
890.791
888.543
886.133
883.554
880.795
877.848
874.701
871.345
867.767
863.955
859.896
855.577
850.981
846.092
840.893
835.363
829.482
823.227
816.57
809.485
801.939
793.897
785.321
776.169
766.392
755.937
744.746
732.801
720.133
706.327
691.48
675.495
658.264
639.671
619.591
597.896
574.451
549.124
521.792
492.351
460.729
426.905
390.929
352.951
313.255
)
;

boundaryField
{
    fixedWall
    {
        type            fixedValue;
        value           uniform 293;
    }
    outlet
    {
        type            inletOutlet;
        inletValue      uniform 293;
        value           uniform 293;
    }
    defaultFaces
    {
        type            empty;
    }
}


// ************************************************************************* //
