/*--------------------------------*- C++ -*----------------------------------*\
| =========                 |                                                 |
| \\      /  F ield         | OpenFOAM: The Open Source CFD Toolbox           |
|  \\    /   O peration     | Version:  2406                                  |
|   \\  /    A nd           | Website:  www.openfoam.com                      |
|    \\/     M anipulation  |                                                 |
\*---------------------------------------------------------------------------*/
FoamFile
{
    version     2.0;
    format      ascii;
    arch        "LSB;label=32;scalar=64";
    class       volVectorField;
    location    "7.5";
    object      U;
}
// * * * * * * * * * * * * * * * * * * * * * * * * * * * * * * * * * * * * * //

dimensions      [0 1 -1 0 0 0 0];

internalField   nonuniform List<vector> 
1000
(
(-1.59262e-06 0 0)
(-7.34638e-06 0 0)
(-1.84299e-05 0 0)
(-3.34742e-05 0 0)
(-5.14598e-05 0 0)
(-7.17903e-05 0 0)
(-9.40563e-05 0 0)
(-0.000117937 0 0)
(-0.00014316 0 0)
(-0.000169508 0 0)
(-0.000196795 0 0)
(-0.000224867 0 0)
(-0.000253592 0 0)
(-0.000282859 0 0)
(-0.000312568 0 0)
(-0.000342635 0 0)
(-0.000372984 0 0)
(-0.00040355 0 0)
(-0.000434272 0 0)
(-0.000465097 0 0)
(-0.000495978 0 0)
(-0.000526871 0 0)
(-0.000557738 0 0)
(-0.000588542 0 0)
(-0.000619252 0 0)
(-0.000649838 0 0)
(-0.000680272 0 0)
(-0.000710531 0 0)
(-0.00074059 0 0)
(-0.000770429 0 0)
(-0.000800028 0 0)
(-0.00082937 0 0)
(-0.000858439 0 0)
(-0.000887217 0 0)
(-0.000915694 0 0)
(-0.000943855 0 0)
(-0.000971689 0 0)
(-0.000999185 0 0)
(-0.00102633 0 0)
(-0.00105312 0 0)
(-0.00107955 0 0)
(-0.0011056 0 0)
(-0.00113128 0 0)
(-0.00115657 0 0)
(-0.00118147 0 0)
(-0.00120598 0 0)
(-0.00123008 0 0)
(-0.00125379 0 0)
(-0.00127709 0 0)
(-0.00129998 0 0)
(-0.00132246 0 0)
(-0.00134453 0 0)
(-0.00136619 0 0)
(-0.00138743 0 0)
(-0.00140826 0 0)
(-0.00142868 0 0)
(-0.00144869 0 0)
(-0.00146828 0 0)
(-0.00148746 0 0)
(-0.00150624 0 0)
(-0.00152461 0 0)
(-0.00154257 0 0)
(-0.00156013 0 0)
(-0.00157729 0 0)
(-0.00159406 0 0)
(-0.00161043 0 0)
(-0.00162641 0 0)
(-0.001642 0 0)
(-0.00165721 0 0)
(-0.00167205 0 0)
(-0.0016865 0 0)
(-0.00170059 0 0)
(-0.00171431 0 0)
(-0.00172767 0 0)
(-0.00174068 0 0)
(-0.00175333 0 0)
(-0.00176564 0 0)
(-0.00177761 0 0)
(-0.00178924 0 0)
(-0.00180054 0 0)
(-0.00181151 0 0)
(-0.00182217 0 0)
(-0.00183251 0 0)
(-0.00184254 0 0)
(-0.00185228 0 0)
(-0.00186171 0 0)
(-0.00187085 0 0)
(-0.00187971 0 0)
(-0.00188829 0 0)
(-0.00189659 0 0)
(-0.00190463 0 0)
(-0.00191241 0 0)
(-0.00191992 0 0)
(-0.00192719 0 0)
(-0.00193422 0 0)
(-0.001941 0 0)
(-0.00194755 0 0)
(-0.00195388 0 0)
(-0.00195998 0 0)
(-0.00196586 0 0)
(-0.00197154 0 0)
(-0.00197701 0 0)
(-0.00198228 0 0)
(-0.00198736 0 0)
(-0.00199224 0 0)
(-0.00199695 0 0)
(-0.00200147 0 0)
(-0.00200583 0 0)
(-0.00201001 0 0)
(-0.00201403 0 0)
(-0.0020179 0 0)
(-0.00202161 0 0)
(-0.00202517 0 0)
(-0.00202858 0 0)
(-0.00203186 0 0)
(-0.00203501 0 0)
(-0.00203802 0 0)
(-0.00204091 0 0)
(-0.00204367 0 0)
(-0.00204632 0 0)
(-0.00204886 0 0)
(-0.00205128 0 0)
(-0.0020536 0 0)
(-0.00205581 0 0)
(-0.00205793 0 0)
(-0.00205995 0 0)
(-0.00206189 0 0)
(-0.00206373 0 0)
(-0.00206548 0 0)
(-0.00206715 0 0)
(-0.00206875 0 0)
(-0.00207028 0 0)
(-0.00207174 0 0)
(-0.00207312 0 0)
(-0.00207444 0 0)
(-0.00207569 0 0)
(-0.00207688 0 0)
(-0.00207802 0 0)
(-0.0020791 0 0)
(-0.00208012 0 0)
(-0.0020811 0 0)
(-0.00208202 0 0)
(-0.0020829 0 0)
(-0.00208373 0 0)
(-0.00208452 0 0)
(-0.00208527 0 0)
(-0.00208598 0 0)
(-0.00208666 0 0)
(-0.00208729 0 0)
(-0.0020879 0 0)
(-0.00208847 0 0)
(-0.00208901 0 0)
(-0.00208952 0 0)
(-0.00209 0 0)
(-0.00209046 0 0)
(-0.00209089 0 0)
(-0.0020913 0 0)
(-0.00209168 0 0)
(-0.00209204 0 0)
(-0.00209238 0 0)
(-0.00209271 0 0)
(-0.00209301 0 0)
(-0.0020933 0 0)
(-0.00209356 0 0)
(-0.00209382 0 0)
(-0.00209406 0 0)
(-0.00209428 0 0)
(-0.00209449 0 0)
(-0.00209469 0 0)
(-0.00209488 0 0)
(-0.00209505 0 0)
(-0.00209522 0 0)
(-0.00209537 0 0)
(-0.00209552 0 0)
(-0.00209565 0 0)
(-0.00209578 0 0)
(-0.0020959 0 0)
(-0.00209601 0 0)
(-0.00209611 0 0)
(-0.00209621 0 0)
(-0.0020963 0 0)
(-0.00209639 0 0)
(-0.00209647 0 0)
(-0.00209654 0 0)
(-0.00209661 0 0)
(-0.00209668 0 0)
(-0.00209674 0 0)
(-0.0020968 0 0)
(-0.00209685 0 0)
(-0.0020969 0 0)
(-0.00209695 0 0)
(-0.00209699 0 0)
(-0.00209703 0 0)
(-0.00209707 0 0)
(-0.0020971 0 0)
(-0.00209713 0 0)
(-0.00209716 0 0)
(-0.00209719 0 0)
(-0.00209722 0 0)
(-0.00209724 0 0)
(-0.00209726 0 0)
(-0.00209728 0 0)
(-0.0020973 0 0)
(-0.00209732 0 0)
(-0.00209733 0 0)
(-0.00209735 0 0)
(-0.00209736 0 0)
(-0.00209738 0 0)
(-0.00209739 0 0)
(-0.0020974 0 0)
(-0.00209741 0 0)
(-0.00209742 0 0)
(-0.00209743 0 0)
(-0.00209743 0 0)
(-0.00209744 0 0)
(-0.00209744 0 0)
(-0.00209745 0 0)
(-0.00209745 0 0)
(-0.00209746 0 0)
(-0.00209746 0 0)
(-0.00209747 0 0)
(-0.00209747 0 0)
(-0.00209747 0 0)
(-0.00209747 0 0)
(-0.00209748 0 0)
(-0.00209748 0 0)
(-0.00209748 0 0)
(-0.00209748 0 0)
(-0.00209748 0 0)
(-0.00209748 0 0)
(-0.00209748 0 0)
(-0.00209748 0 0)
(-0.00209748 0 0)
(-0.00209748 0 0)
(-0.00209747 0 0)
(-0.00209748 0 0)
(-0.00209748 0 0)
(-0.00209747 0 0)
(-0.00209748 0 0)
(-0.00209746 0 0)
(-0.00209747 0 0)
(-0.00209747 0 0)
(-0.00209746 0 0)
(-0.00209747 0 0)
(-0.00209745 0 0)
(-0.00209746 0 0)
(-0.00209745 0 0)
(-0.00209745 0 0)
(-0.00209745 0 0)
(-0.00209744 0 0)
(-0.00209744 0 0)
(-0.00209744 0 0)
(-0.00209743 0 0)
(-0.00209743 0 0)
(-0.00209743 0 0)
(-0.00209742 0 0)
(-0.00209742 0 0)
(-0.00209741 0 0)
(-0.00209741 0 0)
(-0.00209741 0 0)
(-0.0020974 0 0)
(-0.0020974 0 0)
(-0.0020974 0 0)
(-0.00209739 0 0)
(-0.0020974 0 0)
(-0.00209738 0 0)
(-0.00209738 0 0)
(-0.00209738 0 0)
(-0.00209737 0 0)
(-0.00209737 0 0)
(-0.00209736 0 0)
(-0.00209736 0 0)
(-0.00209735 0 0)
(-0.00209735 0 0)
(-0.00209735 0 0)
(-0.00209734 0 0)
(-0.00209734 0 0)
(-0.00209733 0 0)
(-0.00209733 0 0)
(-0.00209733 0 0)
(-0.00209732 0 0)
(-0.00209732 0 0)
(-0.00209731 0 0)
(-0.00209731 0 0)
(-0.0020973 0 0)
(-0.0020973 0 0)
(-0.00209729 0 0)
(-0.00209729 0 0)
(-0.00209729 0 0)
(-0.00209728 0 0)
(-0.00209728 0 0)
(-0.00209727 0 0)
(-0.00209727 0 0)
(-0.00209727 0 0)
(-0.00209726 0 0)
(-0.00209725 0 0)
(-0.00209726 0 0)
(-0.00209724 0 0)
(-0.00209725 0 0)
(-0.00209724 0 0)
(-0.00209723 0 0)
(-0.00209723 0 0)
(-0.00209723 0 0)
(-0.00209722 0 0)
(-0.00209722 0 0)
(-0.00209722 0 0)
(-0.00209721 0 0)
(-0.00209721 0 0)
(-0.00209721 0 0)
(-0.0020972 0 0)
(-0.0020972 0 0)
(-0.00209719 0 0)
(-0.00209719 0 0)
(-0.00209719 0 0)
(-0.00209718 0 0)
(-0.00209719 0 0)
(-0.00209717 0 0)
(-0.00209718 0 0)
(-0.00209717 0 0)
(-0.00209717 0 0)
(-0.00209717 0 0)
(-0.00209716 0 0)
(-0.00209716 0 0)
(-0.00209716 0 0)
(-0.00209716 0 0)
(-0.00209715 0 0)
(-0.00209716 0 0)
(-0.00209715 0 0)
(-0.00209715 0 0)
(-0.00209715 0 0)
(-0.00209714 0 0)
(-0.00209715 0 0)
(-0.00209714 0 0)
(-0.00209714 0 0)
(-0.00209714 0 0)
(-0.00209713 0 0)
(-0.00209713 0 0)
(-0.00209713 0 0)
(-0.00209713 0 0)
(-0.00209713 0 0)
(-0.00209713 0 0)
(-0.00209713 0 0)
(-0.00209713 0 0)
(-0.00209712 0 0)
(-0.00209713 0 0)
(-0.00209712 0 0)
(-0.00209712 0 0)
(-0.00209712 0 0)
(-0.00209712 0 0)
(-0.00209712 0 0)
(-0.00209713 0 0)
(-0.00209712 0 0)
(-0.00209712 0 0)
(-0.00209712 0 0)
(-0.00209712 0 0)
(-0.00209713 0 0)
(-0.00209712 0 0)
(-0.00209712 0 0)
(-0.00209712 0 0)
(-0.00209713 0 0)
(-0.00209712 0 0)
(-0.00209713 0 0)
(-0.00209712 0 0)
(-0.00209713 0 0)
(-0.00209713 0 0)
(-0.00209713 0 0)
(-0.00209713 0 0)
(-0.00209713 0 0)
(-0.00209713 0 0)
(-0.00209714 0 0)
(-0.00209713 0 0)
(-0.00209714 0 0)
(-0.00209714 0 0)
(-0.00209714 0 0)
(-0.00209714 0 0)
(-0.00209714 0 0)
(-0.00209714 0 0)
(-0.00209715 0 0)
(-0.00209715 0 0)
(-0.00209715 0 0)
(-0.00209715 0 0)
(-0.00209715 0 0)
(-0.00209716 0 0)
(-0.00209716 0 0)
(-0.00209716 0 0)
(-0.00209716 0 0)
(-0.00209716 0 0)
(-0.00209717 0 0)
(-0.00209717 0 0)
(-0.00209717 0 0)
(-0.00209717 0 0)
(-0.00209717 0 0)
(-0.00209718 0 0)
(-0.00209717 0 0)
(-0.00209718 0 0)
(-0.00209718 0 0)
(-0.00209718 0 0)
(-0.00209718 0 0)
(-0.00209718 0 0)
(-0.00209718 0 0)
(-0.00209719 0 0)
(-0.00209719 0 0)
(-0.00209719 0 0)
(-0.00209719 0 0)
(-0.00209719 0 0)
(-0.00209719 0 0)
(-0.00209719 0 0)
(-0.0020972 0 0)
(-0.0020972 0 0)
(-0.0020972 0 0)
(-0.0020972 0 0)
(-0.0020972 0 0)
(-0.0020972 0 0)
(-0.0020972 0 0)
(-0.0020972 0 0)
(-0.0020972 0 0)
(-0.0020972 0 0)
(-0.0020972 0 0)
(-0.0020972 0 0)
(-0.0020972 0 0)
(-0.0020972 0 0)
(-0.0020972 0 0)
(-0.0020972 0 0)
(-0.0020972 0 0)
(-0.0020972 0 0)
(-0.0020972 0 0)
(-0.0020972 0 0)
(-0.0020972 0 0)
(-0.0020972 0 0)
(-0.0020972 0 0)
(-0.0020972 0 0)
(-0.0020972 0 0)
(-0.00209719 0 0)
(-0.0020972 0 0)
(-0.00209719 0 0)
(-0.00209719 0 0)
(-0.00209719 0 0)
(-0.00209719 0 0)
(-0.00209719 0 0)
(-0.00209719 0 0)
(-0.00209719 0 0)
(-0.00209718 0 0)
(-0.00209719 0 0)
(-0.00209718 0 0)
(-0.00209718 0 0)
(-0.00209718 0 0)
(-0.00209718 0 0)
(-0.00209718 0 0)
(-0.00209717 0 0)
(-0.00209718 0 0)
(-0.00209718 0 0)
(-0.00209717 0 0)
(-0.00209718 0 0)
(-0.00209717 0 0)
(-0.00209717 0 0)
(-0.00209717 0 0)
(-0.00209717 0 0)
(-0.00209717 0 0)
(-0.00209717 0 0)
(-0.00209716 0 0)
(-0.00209716 0 0)
(-0.00209716 0 0)
(-0.00209716 0 0)
(-0.00209716 0 0)
(-0.00209715 0 0)
(-0.00209716 0 0)
(-0.00209715 0 0)
(-0.00209716 0 0)
(-0.00209716 0 0)
(-0.00209715 0 0)
(-0.00209716 0 0)
(-0.00209715 0 0)
(-0.00209716 0 0)
(-0.00209715 0 0)
(-0.00209716 0 0)
(-0.00209715 0 0)
(-0.00209715 0 0)
(-0.00209716 0 0)
(-0.00209715 0 0)
(-0.00209716 0 0)
(-0.00209715 0 0)
(-0.00209715 0 0)
(-0.00209715 0 0)
(-0.00209715 0 0)
(-0.00209715 0 0)
(-0.00209715 0 0)
(-0.00209715 0 0)
(-0.00209715 0 0)
(-0.00209715 0 0)
(-0.00209715 0 0)
(-0.00209715 0 0)
(-0.00209715 0 0)
(-0.00209715 0 0)
(-0.00209715 0 0)
(-0.00209715 0 0)
(-0.00209715 0 0)
(-0.00209715 0 0)
(-0.00209715 0 0)
(-0.00209715 0 0)
(-0.00209715 0 0)
(-0.00209715 0 0)
(-0.00209715 0 0)
(-0.00209715 0 0)
(-0.00209715 0 0)
(-0.00209715 0 0)
(-0.00209715 0 0)
(-0.00209715 0 0)
(-0.00209715 0 0)
(-0.00209715 0 0)
(-0.00209715 0 0)
(-0.00209715 0 0)
(-0.00209716 0 0)
(-0.00209715 0 0)
(-0.00209716 0 0)
(-0.00209715 0 0)
(-0.00209715 0 0)
(-0.00209716 0 0)
(-0.00209715 0 0)
(-0.00209716 0 0)
(-0.00209715 0 0)
(-0.00209716 0 0)
(-0.00209715 0 0)
(-0.00209716 0 0)
(-0.00209715 0 0)
(-0.00209716 0 0)
(-0.00209715 0 0)
(-0.00209716 0 0)
(-0.00209715 0 0)
(-0.00209716 0 0)
(-0.00209715 0 0)
(-0.00209716 0 0)
(-0.00209716 0 0)
(-0.00209715 0 0)
(-0.00209716 0 0)
(-0.00209715 0 0)
(-0.00209715 0 0)
(-0.00209716 0 0)
(-0.00209715 0 0)
(-0.00209715 0 0)
(-0.00209715 0 0)
(-0.00209715 0 0)
(-0.00209715 0 0)
(-0.00209715 0 0)
(-0.00209715 0 0)
(-0.00209715 0 0)
(-0.00209715 0 0)
(-0.00209714 0 0)
(-0.00209715 0 0)
(-0.00209715 0 0)
(-0.00209714 0 0)
(-0.00209715 0 0)
(-0.00209713 0 0)
(-0.00209714 0 0)
(-0.00209714 0 0)
(-0.00209713 0 0)
(-0.00209714 0 0)
(-0.00209713 0 0)
(-0.00209713 0 0)
(-0.00209713 0 0)
(-0.00209712 0 0)
(-0.00209713 0 0)
(-0.00209713 0 0)
(-0.00209712 0 0)
(-0.00209712 0 0)
(-0.00209712 0 0)
(-0.00209711 0 0)
(-0.00209712 0 0)
(-0.00209711 0 0)
(-0.0020971 0 0)
(-0.00209711 0 0)
(-0.00209711 0 0)
(-0.0020971 0 0)
(-0.00209711 0 0)
(-0.00209709 0 0)
(-0.0020971 0 0)
(-0.00209709 0 0)
(-0.00209709 0 0)
(-0.00209709 0 0)
(-0.00209708 0 0)
(-0.00209709 0 0)
(-0.00209708 0 0)
(-0.00209709 0 0)
(-0.00209708 0 0)
(-0.00209709 0 0)
(-0.00209707 0 0)
(-0.00209708 0 0)
(-0.00209708 0 0)
(-0.00209707 0 0)
(-0.00209708 0 0)
(-0.00209707 0 0)
(-0.00209707 0 0)
(-0.00209706 0 0)
(-0.00209707 0 0)
(-0.00209706 0 0)
(-0.00209707 0 0)
(-0.00209706 0 0)
(-0.00209706 0 0)
(-0.00209706 0 0)
(-0.00209706 0 0)
(-0.00209706 0 0)
(-0.00209706 0 0)
(-0.00209706 0 0)
(-0.00209706 0 0)
(-0.00209706 0 0)
(-0.00209706 0 0)
(-0.00209706 0 0)
(-0.00209706 0 0)
(-0.00209706 0 0)
(-0.00209706 0 0)
(-0.00209706 0 0)
(-0.00209706 0 0)
(-0.00209706 0 0)
(-0.00209706 0 0)
(-0.00209706 0 0)
(-0.00209706 0 0)
(-0.00209707 0 0)
(-0.00209706 0 0)
(-0.00209706 0 0)
(-0.00209706 0 0)
(-0.00209706 0 0)
(-0.00209707 0 0)
(-0.00209706 0 0)
(-0.00209707 0 0)
(-0.00209706 0 0)
(-0.00209707 0 0)
(-0.00209707 0 0)
(-0.00209707 0 0)
(-0.00209707 0 0)
(-0.00209707 0 0)
(-0.00209707 0 0)
(-0.00209707 0 0)
(-0.00209707 0 0)
(-0.00209708 0 0)
(-0.00209707 0 0)
(-0.00209708 0 0)
(-0.00209708 0 0)
(-0.00209708 0 0)
(-0.00209708 0 0)
(-0.00209708 0 0)
(-0.00209708 0 0)
(-0.00209708 0 0)
(-0.00209708 0 0)
(-0.00209708 0 0)
(-0.00209708 0 0)
(-0.00209708 0 0)
(-0.00209708 0 0)
(-0.00209708 0 0)
(-0.00209709 0 0)
(-0.00209708 0 0)
(-0.00209709 0 0)
(-0.00209708 0 0)
(-0.00209708 0 0)
(-0.00209709 0 0)
(-0.00209709 0 0)
(-0.00209709 0 0)
(-0.00209709 0 0)
(-0.00209709 0 0)
(-0.00209709 0 0)
(-0.00209709 0 0)
(-0.00209709 0 0)
(-0.00209709 0 0)
(-0.00209708 0 0)
(-0.00209709 0 0)
(-0.00209708 0 0)
(-0.00209709 0 0)
(-0.00209708 0 0)
(-0.00209709 0 0)
(-0.00209709 0 0)
(-0.00209708 0 0)
(-0.00209709 0 0)
(-0.00209708 0 0)
(-0.00209708 0 0)
(-0.00209708 0 0)
(-0.00209709 0 0)
(-0.00209708 0 0)
(-0.00209708 0 0)
(-0.00209708 0 0)
(-0.00209707 0 0)
(-0.00209708 0 0)
(-0.00209707 0 0)
(-0.00209708 0 0)
(-0.00209707 0 0)
(-0.00209707 0 0)
(-0.00209707 0 0)
(-0.00209706 0 0)
(-0.00209707 0 0)
(-0.00209706 0 0)
(-0.00209706 0 0)
(-0.00209706 0 0)
(-0.00209705 0 0)
(-0.00209706 0 0)
(-0.00209704 0 0)
(-0.00209704 0 0)
(-0.00209704 0 0)
(-0.00209703 0 0)
(-0.00209703 0 0)
(-0.00209703 0 0)
(-0.00209702 0 0)
(-0.00209702 0 0)
(-0.00209702 0 0)
(-0.00209701 0 0)
(-0.00209701 0 0)
(-0.002097 0 0)
(-0.002097 0 0)
(-0.00209699 0 0)
(-0.00209699 0 0)
(-0.00209698 0 0)
(-0.00209697 0 0)
(-0.00209697 0 0)
(-0.00209696 0 0)
(-0.00209696 0 0)
(-0.00209695 0 0)
(-0.00209695 0 0)
(-0.00209694 0 0)
(-0.00209694 0 0)
(-0.00209693 0 0)
(-0.00209693 0 0)
(-0.00209692 0 0)
(-0.00209691 0 0)
(-0.00209691 0 0)
(-0.00209691 0 0)
(-0.0020969 0 0)
(-0.00209689 0 0)
(-0.00209689 0 0)
(-0.00209688 0 0)
(-0.00209688 0 0)
(-0.00209688 0 0)
(-0.00209687 0 0)
(-0.00209687 0 0)
(-0.00209687 0 0)
(-0.00209686 0 0)
(-0.00209686 0 0)
(-0.00209686 0 0)
(-0.00209685 0 0)
(-0.00209686 0 0)
(-0.00209685 0 0)
(-0.00209685 0 0)
(-0.00209685 0 0)
(-0.00209685 0 0)
(-0.00209686 0 0)
(-0.00209685 0 0)
(-0.00209685 0 0)
(-0.00209686 0 0)
(-0.00209685 0 0)
(-0.00209686 0 0)
(-0.00209686 0 0)
(-0.00209686 0 0)
(-0.00209686 0 0)
(-0.00209687 0 0)
(-0.00209687 0 0)
(-0.00209687 0 0)
(-0.00209688 0 0)
(-0.00209688 0 0)
(-0.00209689 0 0)
(-0.00209689 0 0)
(-0.0020969 0 0)
(-0.0020969 0 0)
(-0.00209691 0 0)
(-0.00209691 0 0)
(-0.00209692 0 0)
(-0.00209693 0 0)
(-0.00209693 0 0)
(-0.00209694 0 0)
(-0.00209694 0 0)
(-0.00209695 0 0)
(-0.00209695 0 0)
(-0.00209696 0 0)
(-0.00209697 0 0)
(-0.00209697 0 0)
(-0.00209698 0 0)
(-0.00209699 0 0)
(-0.00209699 0 0)
(-0.002097 0 0)
(-0.002097 0 0)
(-0.002097 0 0)
(-0.00209701 0 0)
(-0.00209702 0 0)
(-0.00209702 0 0)
(-0.00209703 0 0)
(-0.00209702 0 0)
(-0.00209703 0 0)
(-0.00209703 0 0)
(-0.00209704 0 0)
(-0.00209704 0 0)
(-0.00209704 0 0)
(-0.00209704 0 0)
(-0.00209704 0 0)
(-0.00209704 0 0)
(-0.00209705 0 0)
(-0.00209704 0 0)
(-0.00209705 0 0)
(-0.00209704 0 0)
(-0.00209704 0 0)
(-0.00209704 0 0)
(-0.00209704 0 0)
(-0.00209704 0 0)
(-0.00209704 0 0)
(-0.00209703 0 0)
(-0.00209703 0 0)
(-0.00209702 0 0)
(-0.00209701 0 0)
(-0.00209702 0 0)
(-0.002097 0 0)
(-0.002097 0 0)
(-0.00209699 0 0)
(-0.00209699 0 0)
(-0.00209698 0 0)
(-0.00209698 0 0)
(-0.00209697 0 0)
(-0.00209696 0 0)
(-0.00209695 0 0)
(-0.00209695 0 0)
(-0.00209694 0 0)
(-0.00209693 0 0)
(-0.00209692 0 0)
(-0.00209691 0 0)
(-0.00209691 0 0)
(-0.0020969 0 0)
(-0.00209689 0 0)
(-0.00209688 0 0)
(-0.00209687 0 0)
(-0.00209686 0 0)
(-0.00209686 0 0)
(-0.00209685 0 0)
(-0.00209684 0 0)
(-0.00209683 0 0)
(-0.00209682 0 0)
(-0.00209682 0 0)
(-0.00209681 0 0)
(-0.00209681 0 0)
(-0.0020968 0 0)
(-0.00209679 0 0)
(-0.00209679 0 0)
(-0.00209677 0 0)
(-0.00209677 0 0)
(-0.00209677 0 0)
(-0.00209676 0 0)
(-0.00209676 0 0)
(-0.00209676 0 0)
(-0.00209675 0 0)
(-0.00209676 0 0)
(-0.00209674 0 0)
(-0.00209674 0 0)
(-0.00209674 0 0)
(-0.00209673 0 0)
(-0.00209674 0 0)
(-0.00209673 0 0)
(-0.00209674 0 0)
(-0.00209674 0 0)
(-0.00209673 0 0)
(-0.00209674 0 0)
(-0.00209673 0 0)
(-0.00209673 0 0)
(-0.00209674 0 0)
(-0.00209673 0 0)
(-0.00209674 0 0)
(-0.00209674 0 0)
(-0.00209674 0 0)
(-0.00209674 0 0)
(-0.00209674 0 0)
(-0.00209674 0 0)
(-0.00209675 0 0)
(-0.00209674 0 0)
(-0.00209675 0 0)
(-0.00209675 0 0)
(-0.00209675 0 0)
(-0.00209676 0 0)
(-0.00209676 0 0)
(-0.00209676 0 0)
(-0.00209676 0 0)
(-0.00209676 0 0)
(-0.00209677 0 0)
(-0.00209677 0 0)
(-0.00209677 0 0)
(-0.00209678 0 0)
(-0.00209678 0 0)
(-0.00209678 0 0)
(-0.00209679 0 0)
(-0.0020968 0 0)
(-0.0020968 0 0)
(-0.00209681 0 0)
(-0.00209682 0 0)
(-0.00209683 0 0)
(-0.00209684 0 0)
(-0.00209686 0 0)
(-0.00209687 0 0)
(-0.00209689 0 0)
(-0.00209692 0 0)
(-0.00209694 0 0)
(-0.00209698 0 0)
(-0.00209701 0 0)
(-0.00209706 0 0)
(-0.00209711 0 0)
(-0.00209717 0 0)
(-0.00209724 0 0)
(-0.00209733 0 0)
(-0.00209742 0 0)
(-0.00209754 0 0)
(-0.00209767 0 0)
(-0.00209782 0 0)
(-0.00209799 0 0)
(-0.00209819 0 0)
(-0.00209842 0 0)
(-0.00209869 0 0)
(-0.002099 0 0)
(-0.00209935 0 0)
(-0.00209976 0 0)
(-0.00210022 0 0)
(-0.00210075 0 0)
(-0.00210135 0 0)
(-0.00210204 0 0)
(-0.00210282 0 0)
(-0.00210371 0 0)
(-0.00210471 0 0)
(-0.00210585 0 0)
(-0.00210715 0 0)
(-0.0021086 0 0)
(-0.00211025 0 0)
(-0.0021121 0 0)
(-0.00211419 0 0)
(-0.00211653 0 0)
(-0.00211916 0 0)
(-0.0021221 0 0)
(-0.00212539 0 0)
(-0.00212907 0 0)
(-0.00213316 0 0)
(-0.00213772 0 0)
(-0.00214279 0 0)
(-0.00214842 0 0)
(-0.00215465 0 0)
(-0.00216154 0 0)
(-0.00216916 0 0)
(-0.00217756 0 0)
(-0.0021868 0 0)
(-0.00219697 0 0)
(-0.00220812 0 0)
(-0.00222034 0 0)
(-0.00223371 0 0)
(-0.0022483 0 0)
(-0.00226421 0 0)
(-0.00228152 0 0)
(-0.00230032 0 0)
(-0.00232071 0 0)
(-0.00234279 0 0)
(-0.00236664 0 0)
(-0.00239236 0 0)
(-0.00242006 0 0)
(-0.00244983 0 0)
(-0.00248177 0 0)
(-0.00251596 0 0)
(-0.0025525 0 0)
(-0.00259147 0 0)
(-0.00263296 0 0)
(-0.00267705 0 0)
(-0.00272379 0 0)
(-0.00277326 0 0)
(-0.00282549 0 0)
(-0.00288053 0 0)
(-0.00293842 0 0)
(-0.00299915 0 0)
(-0.00306272 0 0)
(-0.00312912 0 0)
(-0.00319831 0 0)
(-0.00327023 0 0)
(-0.00334479 0 0)
(-0.00342188 0 0)
(-0.00350138 0 0)
(-0.00358312 0 0)
(-0.00366691 0 0)
(-0.00375253 0 0)
(-0.0038397 0 0)
(-0.00392815 0 0)
(-0.00401752 0 0)
(-0.00410744 0 0)
(-0.00419749 0 0)
(-0.00428718 0 0)
(-0.00437599 0 0)
(-0.00446333 0 0)
(-0.00454854 0 0)
(-0.00463095 0 0)
(-0.00470983 0 0)
(-0.00478429 0 0)
(-0.00485327 0 0)
(-0.00491533 0 0)
(-0.00496944 0 0)
(-0.00501461 0 0)
(-0.00504978 0 0)
(-0.00507286 0 0)
(-0.00508152 0 0)
(-0.00507404 0 0)
(-0.00504733 0 0)
(-0.00499884 0 0)
(-0.0049252 0 0)
(-0.00482226 0 0)
(-0.00468673 0 0)
(-0.0045148 0 0)
(-0.00430153 0 0)
(-0.00402477 0 0)
(-0.00364269 0 0)
(-0.00322832 0 0)
)
;

boundaryField
{
    fixedWall
    {
        type            fixedValue;
        value           uniform (0 0 0);
    }
    outlet
    {
        type            pressureInletOutletVelocity;
        value           uniform (-0.00322832 0 0);
    }
    defaultFaces
    {
        type            empty;
    }
}


// ************************************************************************* //
