/*--------------------------------*- C++ -*----------------------------------*\
| =========                 |                                                 |
| \\      /  F ield         | OpenFOAM: The Open Source CFD Toolbox           |
|  \\    /   O peration     | Version:  2406                                  |
|   \\  /    A nd           | Website:  www.openfoam.com                      |
|    \\/     M anipulation  |                                                 |
\*---------------------------------------------------------------------------*/
FoamFile
{
    version     2.0;
    format      ascii;
    arch        "LSB;label=32;scalar=64";
    class       volScalarField;
    location    "6.4";
    object      Qdot;
}
// * * * * * * * * * * * * * * * * * * * * * * * * * * * * * * * * * * * * * //

dimensions      [1 -1 -3 0 0 0 0];

internalField   nonuniform List<scalar> 
1000
(
1.19616e-13
-1.37907e-16
-2.73358e-15
9.1306e-09
1.00437e-07
4.72398e-07
1.82773e-06
5.86968e-06
1.60886e-05
3.89181e-05
8.48766e-05
0.00016977
0.000315543
0.000550817
0.000910837
0.0014368
0.00217473
0.00317375
0.00448402
0.00615458
0.00823097
0.0107532
0.0137536
0.0172555
0.0212719
0.0258049
0.0308451
0.0363726
0.0423566
0.0487574
0.0555269
0.0626106
0.0699489
0.0774788
0.0851359
0.0928552
0.100574
0.10823
0.115768
0.123134
0.130282
0.137171
0.143765
0.150036
0.155961
0.161522
0.166709
0.171516
0.175943
0.179991
0.183669
0.186988
0.189959
0.192599
0.194924
0.196954
0.198707
0.200203
0.201464
0.202507
0.203354
0.204023
0.204533
0.204902
0.205147
0.205283
0.205325
0.205287
0.205182
0.205022
0.204818
0.204578
0.204313
0.20403
0.203735
0.203436
0.203138
0.202846
0.202563
0.202294
0.202041
0.201807
0.201595
0.201405
0.20124
0.201099
0.200985
0.200896
0.200835
0.2008
0.200791
0.200809
0.200852
0.20092
0.201013
0.20113
0.20127
0.201433
0.201617
0.201821
0.202046
0.202289
0.20255
0.202829
0.203124
0.203434
0.203759
0.204098
0.20445
0.204814
0.20519
0.205577
0.205974
0.20638
0.206796
0.20722
0.207651
0.208088
0.208534
0.208987
0.209446
0.20991
0.21038
0.210854
0.211333
0.211816
0.212303
0.212794
0.213288
0.213785
0.214286
0.214789
0.215295
0.215803
0.216314
0.216827
0.217342
0.217859
0.218378
0.218899
0.219422
0.219946
0.220472
0.221
0.221529
0.22206
0.222593
0.223127
0.223662
0.224199
0.224738
0.225278
0.225819
0.226362
0.226906
0.227452
0.228
0.228549
0.229099
0.229651
0.230205
0.23076
0.231316
0.231875
0.232435
0.232996
0.23356
0.234125
0.234692
0.23526
0.23583
0.236402
0.236976
0.237552
0.238129
0.238708
0.23929
0.239873
0.240458
0.241044
0.241633
0.242224
0.242817
0.24341
0.244003
0.244603
0.245204
0.245808
0.246413
0.247021
0.247631
0.248242
0.248856
0.249472
0.250091
0.250711
0.251334
0.251958
0.252585
0.253215
0.253846
0.25448
0.255116
0.255754
0.256395
0.257038
0.257683
0.25833
0.25898
0.259633
0.260287
0.260944
0.261604
0.262265
0.26293
0.263596
0.264266
0.264937
0.265611
0.266288
0.266967
0.267648
0.268332
0.269019
0.269708
0.270399
0.271093
0.27179
0.272489
0.273191
0.273895
0.274603
0.275312
0.276024
0.276739
0.277457
0.278177
0.2789
0.279626
0.280354
0.281085
0.281819
0.282555
0.283294
0.284036
0.284781
0.285529
0.286279
0.287032
0.287788
0.288547
0.289309
0.290073
0.290841
0.291611
0.292385
0.293161
0.29394
0.294722
0.295507
0.296295
0.297086
0.297881
0.298678
0.299478
0.300281
0.301088
0.301897
0.30271
0.303526
0.304345
0.305167
0.305992
0.306821
0.307653
0.308488
0.309326
0.310168
0.311013
0.311861
0.312713
0.313568
0.314426
0.315288
0.316153
0.317022
0.317894
0.31877
0.319649
0.320532
0.321418
0.322308
0.323202
0.324099
0.325
0.325904
0.326812
0.327724
0.328637
0.32955
0.330473
0.3314
0.332331
0.333266
0.334204
0.335147
0.336093
0.337043
0.337998
0.338956
0.339918
0.340884
0.341854
0.342828
0.343807
0.344789
0.345776
0.346766
0.347761
0.34876
0.349763
0.350771
0.351782
0.352798
0.353819
0.354843
0.355872
0.356906
0.357943
0.358985
0.360032
0.361083
0.362139
0.363199
0.364263
0.365332
0.366406
0.367485
0.368568
0.369656
0.370748
0.371845
0.372947
0.374054
0.375165
0.376282
0.377403
0.378529
0.379661
0.380797
0.381938
0.383084
0.384236
0.385392
0.386554
0.38772
0.388892
0.39007
0.391252
0.39244
0.393633
0.394832
0.396036
0.397246
0.398461
0.399682
0.400908
0.40214
0.403378
0.404621
0.40587
0.407125
0.408386
0.409653
0.410926
0.412205
0.413489
0.41478
0.416077
0.41738
0.41869
0.420005
0.421327
0.422656
0.42399
0.425331
0.426679
0.428033
0.429394
0.430761
0.432135
0.433516
0.434904
0.436298
0.437699
0.439107
0.440522
0.441944
0.443372
0.444808
0.446247
0.447687
0.449144
0.450609
0.452081
0.453561
0.455048
0.456542
0.458044
0.459553
0.461069
0.462594
0.464125
0.465664
0.467211
0.468766
0.470328
0.471898
0.473476
0.475062
0.476655
0.478257
0.479866
0.481484
0.483109
0.484743
0.486385
0.488035
0.489693
0.491359
0.493034
0.494718
0.496409
0.498109
0.499818
0.501535
0.503261
0.504996
0.506739
0.508492
0.510253
0.512023
0.513802
0.51559
0.517385
0.519178
0.520994
0.52282
0.524655
0.526499
0.528353
0.530217
0.53209
0.533973
0.535866
0.537769
0.539682
0.541605
0.543539
0.545482
0.547437
0.549401
0.551376
0.553362
0.555359
0.557366
0.559384
0.561413
0.563453
0.565505
0.567567
0.569641
0.571726
0.573823
0.575931
0.578051
0.580183
0.582327
0.584482
0.58665
0.58883
0.591022
0.593226
0.595443
0.597672
0.599914
0.602168
0.604435
0.606715
0.609008
0.611315
0.613634
0.615966
0.618312
0.620672
0.623045
0.625432
0.627832
0.630246
0.632674
0.635117
0.637573
0.640044
0.642529
0.645029
0.647543
0.650072
0.652616
0.655175
0.657749
0.660338
0.662942
0.665563
0.668186
0.670818
0.673485
0.676168
0.678866
0.681581
0.684311
0.687058
0.689822
0.692602
0.695399
0.698213
0.701044
0.703893
0.706759
0.709642
0.712544
0.715463
0.7184
0.721355
0.724329
0.727322
0.730333
0.733363
0.736412
0.73948
0.742568
0.745675
0.748802
0.751948
0.755115
0.758302
0.76151
0.764738
0.767987
0.771256
0.774547
0.777859
0.781193
0.784548
0.787925
0.791324
0.794745
0.798189
0.801655
0.805144
0.808656
0.81219
0.815748
0.81933
0.822935
0.826563
0.830216
0.833893
0.837594
0.84132
0.84507
0.848843
0.852612
0.856432
0.860279
0.864154
0.868054
0.871982
0.875935
0.879915
0.883922
0.887955
0.892016
0.896104
0.90022
0.904363
0.908535
0.912736
0.916965
0.921223
0.92551
0.929827
0.934173
0.93855
0.942957
0.947395
0.951865
0.956365
0.960897
0.965461
0.970058
0.974688
0.97935
0.984046
0.988776
0.99354
0.998338
1.00317
1.00804
1.01294
1.01788
1.02286
1.02787
1.03293
1.03801
1.04314
1.04831
1.05351
1.05875
1.06403
1.06936
1.07472
1.08012
1.08556
1.09105
1.09658
1.10215
1.10774
1.11336
1.11907
1.12482
1.13061
1.13644
1.14232
1.14825
1.15422
1.16024
1.16631
1.17242
1.17858
1.18479
1.19105
1.19736
1.20371
1.21012
1.21658
1.22309
1.22965
1.23626
1.24293
1.24965
1.25642
1.26325
1.27013
1.27707
1.28407
1.29112
1.29823
1.3054
1.31263
1.31991
1.32726
1.33467
1.34215
1.34968
1.35728
1.36494
1.37267
1.38047
1.38833
1.39626
1.40426
1.41233
1.42047
1.42868
1.43696
1.44532
1.45375
1.46225
1.47083
1.47949
1.48823
1.49704
1.50594
1.51492
1.52397
1.53312
1.54234
1.55165
1.56104
1.57053
1.58009
1.58975
1.5995
1.60934
1.61927
1.62929
1.63941
1.64962
1.65993
1.67033
1.68083
1.69143
1.70213
1.71294
1.72384
1.73485
1.74596
1.75718
1.76851
1.77994
1.79148
1.80312
1.8148
1.82667
1.83866
1.85076
1.86298
1.87532
1.88778
1.90036
1.91307
1.92589
1.93885
1.95193
1.96515
1.97849
1.99197
2.00558
2.01933
2.03321
2.04724
2.06141
2.07572
2.09018
2.10479
2.11955
2.13446
2.14953
2.16476
2.18015
2.1957
2.21141
2.2273
2.24335
2.25958
2.27598
2.29257
2.30933
2.32628
2.34342
2.36075
2.37828
2.396
2.41392
2.43204
2.45038
2.46892
2.48767
2.50665
2.52584
2.54526
2.56491
2.58479
2.60491
2.62526
2.64574
2.66643
2.68753
2.70888
2.73048
2.75235
2.77448
2.79688
2.81956
2.84251
2.86575
2.88928
2.9131
2.93722
2.96164
2.98637
3.01141
3.03677
3.06246
3.08847
3.11482
3.14151
3.16854
3.19593
3.22368
3.25179
3.28027
3.30913
3.33838
3.36801
3.39804
3.42847
3.45932
3.49058
3.52227
3.55439
3.58695
3.61996
3.65342
3.68735
3.72175
3.75662
3.79199
3.82785
3.86422
3.9011
3.9385
3.97644
4.01492
4.05395
4.09354
4.1337
4.17445
4.21578
4.25773
4.30029
4.34346
4.38697
4.43145
4.47661
4.52245
4.56898
4.61623
4.66421
4.71292
4.7624
4.81265
4.86368
4.91552
4.96819
5.02169
5.07606
5.1313
5.18744
5.24449
5.30248
5.36143
5.42136
5.48229
5.54425
5.60726
5.67135
5.73654
5.80285
5.87032
5.93897
6.00884
6.07994
6.15232
6.226
6.30101
6.37739
6.45518
6.5344
6.61509
6.69729
6.7805
6.86521
6.95218
7.04083
7.13118
7.22329
7.31719
7.41293
7.51056
7.61012
7.71166
7.81524
7.92091
8.02871
8.13871
8.25096
8.36552
8.48245
8.60182
8.72369
8.84813
8.97521
9.10501
9.23761
9.37308
9.51152
9.65302
9.79767
9.94556
10.0968
10.2515
10.4098
10.5718
10.7375
10.9073
11.081
11.259
11.4414
11.6282
11.8196
12.0159
12.2171
12.4233
12.6349
12.8519
13.0746
13.3031
13.5375
13.7782
14.0253
14.2791
14.5397
14.8074
15.0824
15.3645
15.6527
15.9512
16.2581
16.5738
16.8986
17.233
17.5772
17.9318
18.2971
18.6736
19.0619
19.4623
19.8755
20.302
20.7424
21.1975
21.6677
22.154
22.6557
23.1721
23.7106
24.2682
24.8457
25.4443
26.0648
26.7084
27.376
28.0689
28.7883
29.5354
30.3116
31.1183
31.9572
32.8298
33.7379
34.6834
35.6684
36.6876
37.7563
38.8696
40.0316
41.2466
42.5167
43.8448
45.2342
46.6884
48.2136
49.8136
51.4931
53.2575
55.1127
57.065
59.1215
61.2899
63.5787
65.9975
68.557
71.2693
74.1486
77.2103
80.4719
83.951
87.6635
91.6183
95.8085
100.196
104.688
109.1
113.109
116.194
117.585
116.247
110.972
100.663
84.8711
64.521
42.4166
23.0934
9.26928
2.39764
0.309315
0.0119331
4.14469e-05
3.14652e-10
)
;

boundaryField
{
    fixedWall
    {
        type            calculated;
        value           uniform 0;
    }
    outlet
    {
        type            calculated;
        value           uniform 0;
    }
    defaultFaces
    {
        type            empty;
    }
}


// ************************************************************************* //
