/*--------------------------------*- C++ -*----------------------------------*\
| =========                 |                                                 |
| \\      /  F ield         | OpenFOAM: The Open Source CFD Toolbox           |
|  \\    /   O peration     | Version:  2406                                  |
|   \\  /    A nd           | Website:  www.openfoam.com                      |
|    \\/     M anipulation  |                                                 |
\*---------------------------------------------------------------------------*/
FoamFile
{
    version     2.0;
    format      ascii;
    arch        "LSB;label=32;scalar=64";
    class       volScalarField;
    location    "8.8";
    object      Qdot;
}
// * * * * * * * * * * * * * * * * * * * * * * * * * * * * * * * * * * * * * //

dimensions      [1 -1 -3 0 0 0 0];

internalField   nonuniform List<scalar> 
1000
(
-1.56509e-18
-4.84059e-17
-7.41348e-16
3.80442e-09
2.28265e-08
9.61711e-08
3.71162e-07
1.17529e-06
3.24585e-06
7.96705e-06
1.77165e-05
3.62479e-05
6.90489e-05
0.000123745
0.000210256
0.000340965
0.000530667
0.000796366
0.00115689
0.00163238
0.00224369
0.00301164
0.00395631
0.00509626
0.00644786
0.00802466
0.00983683
0.0118908
0.0141888
0.0167291
0.0195056
0.0225081
0.0257227
0.0291318
0.0327149
0.0364488
0.0403082
0.0442664
0.0482957
0.0523679
0.0564552
0.06053
0.0645662
0.0685387
0.0724244
0.0762021
0.0798529
0.0833601
0.0867095
0.0898892
0.0928898
0.0957043
0.0983277
0.100757
0.102993
0.105034
0.106885
0.108549
0.110031
0.111339
0.112478
0.113457
0.114285
0.11497
0.115521
0.115948
0.11626
0.116466
0.116576
0.116598
0.116541
0.116413
0.116222
0.115975
0.11568
0.115344
0.114973
0.114572
0.114146
0.113702
0.113244
0.112775
0.1123
0.111821
0.111343
0.110868
0.110398
0.109936
0.109483
0.109041
0.108612
0.108197
0.107796
0.107411
0.107042
0.10669
0.106356
0.106039
0.10574
0.105458
0.105194
0.104948
0.10472
0.104508
0.104314
0.104136
0.103975
0.10383
0.1037
0.103585
0.103485
0.103399
0.103327
0.103268
0.103222
0.103188
0.103166
0.103155
0.103155
0.103165
0.103185
0.103215
0.103254
0.103301
0.103356
0.10342
0.10349
0.103568
0.103652
0.103743
0.103839
0.103942
0.104049
0.104162
0.104279
0.104401
0.104527
0.104657
0.104791
0.104928
0.105069
0.105212
0.105359
0.105508
0.10566
0.105814
0.10597
0.106129
0.10629
0.106453
0.106617
0.106783
0.106951
0.10712
0.107291
0.107462
0.107635
0.107809
0.107984
0.10816
0.108337
0.108515
0.108694
0.108873
0.109054
0.109235
0.109416
0.109599
0.109782
0.109965
0.110149
0.110334
0.110519
0.110705
0.110891
0.111077
0.111264
0.111452
0.11164
0.111828
0.112017
0.112206
0.112396
0.112586
0.112776
0.112967
0.113158
0.11335
0.113542
0.113734
0.113927
0.11412
0.114314
0.114508
0.114702
0.114897
0.115092
0.115288
0.115484
0.11568
0.115877
0.116074
0.116272
0.11647
0.116669
0.116868
0.117067
0.117267
0.117467
0.117667
0.117868
0.11807
0.118272
0.118474
0.118677
0.11888
0.119084
0.119288
0.119491
0.119697
0.119902
0.120108
0.120315
0.120522
0.12073
0.120938
0.121146
0.121355
0.121565
0.121774
0.121985
0.122196
0.122407
0.122619
0.122831
0.123044
0.123257
0.123471
0.123685
0.1239
0.124116
0.124331
0.124548
0.124765
0.124982
0.1252
0.125418
0.125637
0.125857
0.126076
0.126297
0.126518
0.12674
0.126962
0.127184
0.127407
0.127631
0.127855
0.12808
0.128305
0.128531
0.128757
0.128984
0.129212
0.12944
0.129669
0.129898
0.130127
0.130358
0.130589
0.13082
0.131052
0.131284
0.131518
0.131751
0.131986
0.13222
0.132456
0.132692
0.132928
0.133166
0.133403
0.133642
0.133881
0.13412
0.13436
0.134601
0.134842
0.135084
0.135327
0.13557
0.135814
0.136058
0.136303
0.136549
0.136795
0.137042
0.13729
0.137537
0.137785
0.138034
0.138284
0.138535
0.138786
0.139038
0.139291
0.139544
0.139798
0.140053
0.140308
0.140564
0.140821
0.141078
0.141336
0.141595
0.141854
0.142114
0.142375
0.142636
0.142898
0.143161
0.143424
0.143688
0.143953
0.144219
0.144485
0.144752
0.14502
0.145288
0.145557
0.145827
0.146097
0.146369
0.146641
0.146914
0.147187
0.147461
0.147736
0.148012
0.148289
0.148566
0.148844
0.149123
0.149402
0.149683
0.149964
0.150246
0.150528
0.150812
0.151096
0.151381
0.151667
0.151954
0.152241
0.15253
0.152819
0.153109
0.153399
0.153691
0.153983
0.154277
0.154571
0.154866
0.155162
0.155458
0.155756
0.156054
0.156353
0.156654
0.156955
0.157256
0.157559
0.157863
0.158167
0.158473
0.158779
0.159086
0.159394
0.159704
0.160014
0.160324
0.160636
0.160949
0.161263
0.161577
0.161893
0.162209
0.162527
0.162845
0.163164
0.163484
0.163806
0.164128
0.164451
0.164775
0.1651
0.165426
0.165753
0.166081
0.16641
0.16674
0.167071
0.167403
0.167736
0.16807
0.168405
0.168741
0.169078
0.169416
0.169755
0.170095
0.170436
0.170778
0.171121
0.171465
0.17181
0.172156
0.172503
0.172852
0.173201
0.173551
0.173902
0.174255
0.174608
0.174963
0.175319
0.175675
0.176033
0.176392
0.176752
0.177113
0.177475
0.177838
0.178203
0.178568
0.178935
0.179302
0.179671
0.180041
0.180412
0.180784
0.181157
0.181532
0.181907
0.182284
0.182662
0.183041
0.183421
0.183803
0.184185
0.184569
0.184954
0.18534
0.185727
0.186116
0.186506
0.186897
0.187289
0.187682
0.188077
0.188473
0.18887
0.189268
0.189668
0.190069
0.190471
0.190874
0.191279
0.191685
0.192092
0.192501
0.192911
0.193322
0.193734
0.194148
0.194563
0.19498
0.195397
0.195817
0.196237
0.196659
0.197082
0.197507
0.197933
0.19836
0.198789
0.199219
0.19965
0.200083
0.200518
0.200953
0.201391
0.201829
0.202269
0.202711
0.203154
0.203598
0.204044
0.204491
0.20494
0.205391
0.205842
0.206296
0.206751
0.207207
0.207665
0.208124
0.208585
0.209048
0.209512
0.209977
0.210443
0.210909
0.211379
0.211851
0.212325
0.2128
0.213277
0.213755
0.214235
0.214717
0.2152
0.215685
0.216172
0.21666
0.21715
0.217641
0.218134
0.218629
0.219126
0.219624
0.220124
0.220626
0.22113
0.221635
0.222142
0.22265
0.223161
0.223673
0.224187
0.224703
0.22522
0.225739
0.226261
0.226784
0.227308
0.227835
0.228363
0.228894
0.229424
0.229954
0.23049
0.231028
0.231567
0.232108
0.232651
0.233196
0.233743
0.234291
0.234842
0.235395
0.235949
0.236505
0.237064
0.237624
0.238186
0.238751
0.239317
0.239885
0.240455
0.241028
0.241602
0.242178
0.242757
0.243337
0.24392
0.244504
0.245091
0.24568
0.24627
0.246863
0.247458
0.248055
0.248655
0.249256
0.24986
0.250466
0.251074
0.251684
0.252296
0.252911
0.253528
0.254147
0.254768
0.255392
0.256018
0.256646
0.257277
0.25791
0.258545
0.259183
0.259822
0.260465
0.261109
0.261757
0.262406
0.263058
0.263712
0.264369
0.265028
0.26569
0.266354
0.267021
0.26769
0.268362
0.269036
0.269713
0.270393
0.271075
0.27176
0.272447
0.273137
0.273829
0.274524
0.275222
0.275923
0.276625
0.277327
0.278035
0.278747
0.279461
0.280178
0.280897
0.28162
0.282345
0.283073
0.283804
0.284538
0.285275
0.286015
0.286757
0.287503
0.288251
0.289002
0.289757
0.290514
0.291274
0.292038
0.292804
0.293574
0.294346
0.295122
0.2959
0.296682
0.297467
0.298255
0.299046
0.299841
0.300638
0.301439
0.302243
0.30305
0.303861
0.304675
0.305492
0.306312
0.307136
0.307963
0.308793
0.309627
0.310464
0.311305
0.312149
0.312996
0.313847
0.314702
0.31556
0.316421
0.317286
0.318154
0.319026
0.319902
0.320781
0.321664
0.32255
0.32344
0.324334
0.325231
0.326132
0.327037
0.327945
0.328851
0.329766
0.330685
0.331608
0.332535
0.333466
0.3344
0.335339
0.336281
0.337227
0.338178
0.339132
0.34009
0.341052
0.342018
0.342988
0.343962
0.34494
0.345922
0.346908
0.347898
0.348893
0.349891
0.350894
0.351901
0.352913
0.353928
0.354948
0.355972
0.357001
0.358034
0.359071
0.360113
0.361159
0.36221
0.363265
0.364325
0.36539
0.366459
0.367533
0.368611
0.369694
0.370782
0.371875
0.372973
0.374075
0.375183
0.376295
0.377412
0.378535
0.379662
0.380795
0.381932
0.383075
0.384223
0.385377
0.386536
0.3877
0.388869
0.390044
0.391224
0.39241
0.393601
0.394798
0.396001
0.397203
0.398409
0.399629
0.400854
0.402086
0.403322
0.404565
0.405814
0.407068
0.408328
0.409595
0.410867
0.412146
0.41343
0.414721
0.416018
0.417321
0.418631
0.419947
0.421269
0.422597
0.423932
0.425273
0.426621
0.427975
0.429336
0.430703
0.432077
0.433457
0.434844
0.436238
0.437638
0.439046
0.44046
0.441881
0.443308
0.444743
0.446184
0.447633
0.449088
0.45055
0.45202
0.453496
0.45498
0.456471
0.457969
0.459474
0.460987
0.462507
0.464034
0.465569
0.467111
0.46866
0.470218
0.471783
0.473355
0.474936
0.476524
0.47812
0.479724
0.481336
0.482957
0.484579
0.486206
0.487849
0.489501
0.49116
0.492828
0.494503
0.496187
0.497879
0.49958
0.501289
0.503007
0.504733
0.506468
0.508212
0.509965
0.511726
0.513497
0.515276
0.517065
0.518863
0.520669
0.522486
0.524311
0.526146
0.527991
0.529845
0.531708
0.533582
0.535464
0.537357
0.53926
0.541172
0.543095
0.545027
0.546969
0.548922
0.550885
0.552858
0.554842
0.556835
0.55884
0.560855
0.56288
0.564916
0.566964
0.569021
0.57109
0.573171
0.575262
0.577365
0.579479
0.581606
0.583744
0.585895
0.588058
0.590234
0.592423
0.594627
0.596844
0.599077
0.601324
0.603589
0.60587
0.608169
0.610488
0.612827
0.615189
0.617573
0.619984
0.622422
0.624889
0.627389
0.629925
0.632499
0.635115
0.637778
0.640492
0.643262
0.646093
0.648992
0.651966
0.655022
0.658168
0.661413
0.664768
0.668243
0.67185
0.675602
0.679512
0.683597
0.687871
0.692354
0.697063
0.702019
0.707243
0.712759
0.718592
0.724766
0.73131
0.738252
0.745621
0.75345
0.76177
0.770614
0.780017
0.790012
0.800633
0.811913
0.823887
0.836584
0.850033
0.864261
0.879288
0.89513
0.911798
0.929292
0.947604
0.966714
0.986587
1.00717
1.0284
1.05019
1.07241
1.09493
1.11758
1.14015
1.1624
1.18405
1.2048
1.22428
1.24209
1.2578
1.27095
1.28103
1.28752
1.28988
1.28758
1.2801
1.26695
1.2477
1.22201
1.18961
1.15039
1.10439
1.0518
0.993041
0.928699
0.859586
0.7867
0.711216
0.634444
0.55779
0.482689
0.410545
0.342661
0.280163
0.224099
0.175334
0.133079
0.098012
0.0698161
0.0479194
0.0315552
0.0198359
0.0118334
0.00665346
0.00349722
0.00170185
0.000757861
0.000304533
0.000108553
3.36132e-05
8.80979e-06
1.89076e-06
3.1925e-07
3.98686e-08
3.15748e-09
3.68882e-10
-1.09277e-17
-6.55526e-11
0
)
;

boundaryField
{
    fixedWall
    {
        type            calculated;
        value           uniform 0;
    }
    outlet
    {
        type            calculated;
        value           uniform 0;
    }
    defaultFaces
    {
        type            empty;
    }
}


// ************************************************************************* //
