/*--------------------------------*- C++ -*----------------------------------*\
| =========                 |                                                 |
| \\      /  F ield         | OpenFOAM: The Open Source CFD Toolbox           |
|  \\    /   O peration     | Version:  2406                                  |
|   \\  /    A nd           | Website:  www.openfoam.com                      |
|    \\/     M anipulation  |                                                 |
\*---------------------------------------------------------------------------*/
FoamFile
{
    version     2.0;
    format      ascii;
    arch        "LSB;label=32;scalar=64";
    class       volScalarField;
    location    "5.6";
    object      CO2;
}
// * * * * * * * * * * * * * * * * * * * * * * * * * * * * * * * * * * * * * //

dimensions      [0 0 0 0 0 0 0];

internalField   nonuniform List<scalar> 
1000
(
0.0709259
0.0709259
0.0709259
0.0709259
0.0709259
0.0709259
0.0709259
0.0709259
0.0709259
0.0709259
0.0709259
0.070926
0.070926
0.070926
0.070926
0.070926
0.070926
0.070926
0.070926
0.0709261
0.0709261
0.0709261
0.0709261
0.0709261
0.0709261
0.0709261
0.0709262
0.0709262
0.0709262
0.0709262
0.0709262
0.0709262
0.0709262
0.0709262
0.0709263
0.0709263
0.0709263
0.0709263
0.0709263
0.0709263
0.0709263
0.0709263
0.0709264
0.0709264
0.0709264
0.0709264
0.0709264
0.0709264
0.0709264
0.0709264
0.0709264
0.0709264
0.0709265
0.0709265
0.0709265
0.0709265
0.0709265
0.0709265
0.0709265
0.0709265
0.0709265
0.0709265
0.0709265
0.0709265
0.0709265
0.0709265
0.0709265
0.0709265
0.0709265
0.0709265
0.0709265
0.0709265
0.0709266
0.0709266
0.0709266
0.0709266
0.0709266
0.0709266
0.0709266
0.0709266
0.0709266
0.0709266
0.0709266
0.0709266
0.0709266
0.0709266
0.0709266
0.0709266
0.0709266
0.0709266
0.0709266
0.0709266
0.0709266
0.0709266
0.0709266
0.0709266
0.0709266
0.0709266
0.0709266
0.0709266
0.0709266
0.0709266
0.0709266
0.0709266
0.0709266
0.0709266
0.0709266
0.0709266
0.0709266
0.0709266
0.0709266
0.0709266
0.0709266
0.0709266
0.0709266
0.0709266
0.0709266
0.0709266
0.0709266
0.0709266
0.0709266
0.0709266
0.0709266
0.0709266
0.0709266
0.0709266
0.0709266
0.0709266
0.0709266
0.0709266
0.0709266
0.0709266
0.0709266
0.0709266
0.0709266
0.0709266
0.0709266
0.0709266
0.0709266
0.0709266
0.0709266
0.0709266
0.0709266
0.0709266
0.0709266
0.0709266
0.0709266
0.0709266
0.0709266
0.0709266
0.0709266
0.0709266
0.0709266
0.0709266
0.0709266
0.0709266
0.0709266
0.0709266
0.0709266
0.0709266
0.0709266
0.0709266
0.0709266
0.0709266
0.0709266
0.0709266
0.0709266
0.0709266
0.0709266
0.0709266
0.0709266
0.0709266
0.0709266
0.0709266
0.0709266
0.0709266
0.0709266
0.0709266
0.0709266
0.0709266
0.0709266
0.0709266
0.0709266
0.0709266
0.0709266
0.0709266
0.0709266
0.0709266
0.0709266
0.0709266
0.0709266
0.0709266
0.0709266
0.0709266
0.0709266
0.0709266
0.0709266
0.0709266
0.0709266
0.0709266
0.0709266
0.0709266
0.0709266
0.0709266
0.0709266
0.0709266
0.0709266
0.0709266
0.0709266
0.0709266
0.0709266
0.0709266
0.0709266
0.0709265
0.0709265
0.0709265
0.0709265
0.0709265
0.0709265
0.0709265
0.0709265
0.0709265
0.0709265
0.0709265
0.0709265
0.0709265
0.0709265
0.0709265
0.0709265
0.0709265
0.0709265
0.0709265
0.0709265
0.0709265
0.0709265
0.0709265
0.0709265
0.0709265
0.0709265
0.0709265
0.0709265
0.0709265
0.0709265
0.0709265
0.0709265
0.0709265
0.0709265
0.0709265
0.0709265
0.0709265
0.0709265
0.0709265
0.0709265
0.0709265
0.0709265
0.0709265
0.0709265
0.0709265
0.0709265
0.0709265
0.0709265
0.0709265
0.0709265
0.0709265
0.0709265
0.0709265
0.0709265
0.0709265
0.0709265
0.0709265
0.0709265
0.0709265
0.0709265
0.0709265
0.0709265
0.0709265
0.0709265
0.0709265
0.0709265
0.0709265
0.0709265
0.0709265
0.0709265
0.0709265
0.0709265
0.0709265
0.0709265
0.0709265
0.0709265
0.0709265
0.0709265
0.0709265
0.0709265
0.0709265
0.0709265
0.0709265
0.0709265
0.0709265
0.0709265
0.0709265
0.0709265
0.0709265
0.0709265
0.0709265
0.0709265
0.0709265
0.0709265
0.0709265
0.0709265
0.0709265
0.0709265
0.0709265
0.0709265
0.0709265
0.0709265
0.0709265
0.0709265
0.0709265
0.0709265
0.0709265
0.0709265
0.0709265
0.0709265
0.0709265
0.0709265
0.0709265
0.0709265
0.0709265
0.0709265
0.0709265
0.0709265
0.0709265
0.0709265
0.0709265
0.0709265
0.0709265
0.0709265
0.0709265
0.0709265
0.0709265
0.0709265
0.0709265
0.0709265
0.0709265
0.0709265
0.0709265
0.0709265
0.0709265
0.0709265
0.0709265
0.0709265
0.0709265
0.0709265
0.0709265
0.0709265
0.0709265
0.0709265
0.0709265
0.0709265
0.0709265
0.0709265
0.0709265
0.0709265
0.0709265
0.0709265
0.0709265
0.0709265
0.0709265
0.0709265
0.0709265
0.0709265
0.0709265
0.0709265
0.0709265
0.0709265
0.0709265
0.0709265
0.0709265
0.0709265
0.0709265
0.0709265
0.0709265
0.0709265
0.0709264
0.0709264
0.0709264
0.0709264
0.0709264
0.0709264
0.0709264
0.0709264
0.0709264
0.0709264
0.0709264
0.0709264
0.0709264
0.0709264
0.0709264
0.0709264
0.0709264
0.0709264
0.0709264
0.0709264
0.0709264
0.0709264
0.0709264
0.0709264
0.0709264
0.0709264
0.0709264
0.0709264
0.0709264
0.0709264
0.0709264
0.0709264
0.0709264
0.0709264
0.0709264
0.0709264
0.0709264
0.0709264
0.0709264
0.0709264
0.0709264
0.0709264
0.0709264
0.0709264
0.0709264
0.0709264
0.0709264
0.0709264
0.0709264
0.0709264
0.0709264
0.0709264
0.0709264
0.0709264
0.0709264
0.0709264
0.0709264
0.0709264
0.0709264
0.0709264
0.0709264
0.0709264
0.0709264
0.0709264
0.0709264
0.0709264
0.0709264
0.0709264
0.0709264
0.0709264
0.0709264
0.0709264
0.0709264
0.0709264
0.0709264
0.0709264
0.0709264
0.0709264
0.0709264
0.0709264
0.0709264
0.0709264
0.0709264
0.0709264
0.0709264
0.0709264
0.0709264
0.0709264
0.0709264
0.0709264
0.0709264
0.0709264
0.0709264
0.0709264
0.0709264
0.0709264
0.0709264
0.0709264
0.0709264
0.0709264
0.0709264
0.0709264
0.0709263
0.0709263
0.0709263
0.0709263
0.0709263
0.0709263
0.0709263
0.0709263
0.0709263
0.0709263
0.0709263
0.0709263
0.0709263
0.0709263
0.0709263
0.0709263
0.0709263
0.0709263
0.0709263
0.0709263
0.0709263
0.0709263
0.0709263
0.0709263
0.0709263
0.0709263
0.0709263
0.0709263
0.0709263
0.0709263
0.0709263
0.0709263
0.0709263
0.0709263
0.0709263
0.0709263
0.0709263
0.0709263
0.0709263
0.0709263
0.0709263
0.0709263
0.0709263
0.0709263
0.0709263
0.0709263
0.0709263
0.0709263
0.0709263
0.0709263
0.0709263
0.0709263
0.0709263
0.0709263
0.0709263
0.0709263
0.0709263
0.0709263
0.0709263
0.0709263
0.0709263
0.0709263
0.0709263
0.0709263
0.0709263
0.0709263
0.0709263
0.0709262
0.0709262
0.0709262
0.0709262
0.0709262
0.0709262
0.0709262
0.0709262
0.0709262
0.0709262
0.0709262
0.0709262
0.0709262
0.0709262
0.0709262
0.0709262
0.0709262
0.0709262
0.0709262
0.0709262
0.0709262
0.0709262
0.0709262
0.0709262
0.0709262
0.0709262
0.0709262
0.0709262
0.0709262
0.0709262
0.0709262
0.0709262
0.0709262
0.0709262
0.0709262
0.0709262
0.0709262
0.0709262
0.0709262
0.0709262
0.0709262
0.0709262
0.0709262
0.0709262
0.0709262
0.0709262
0.0709262
0.0709262
0.0709262
0.0709261
0.0709261
0.0709261
0.0709261
0.0709261
0.0709261
0.0709261
0.0709261
0.0709261
0.0709261
0.0709261
0.0709261
0.0709261
0.0709261
0.0709261
0.0709261
0.0709261
0.0709261
0.0709261
0.0709261
0.0709261
0.0709261
0.0709261
0.0709261
0.0709261
0.0709261
0.0709261
0.0709261
0.0709261
0.0709261
0.0709261
0.0709261
0.0709261
0.0709261
0.0709261
0.0709261
0.070926
0.070926
0.070926
0.070926
0.070926
0.070926
0.070926
0.070926
0.070926
0.070926
0.070926
0.070926
0.070926
0.070926
0.070926
0.070926
0.070926
0.070926
0.070926
0.070926
0.070926
0.070926
0.070926
0.070926
0.070926
0.070926
0.070926
0.070926
0.0709259
0.0709259
0.0709259
0.0709259
0.0709259
0.0709259
0.0709259
0.0709259
0.0709259
0.0709259
0.0709259
0.0709259
0.0709259
0.0709259
0.0709259
0.0709259
0.0709259
0.0709259
0.0709259
0.0709259
0.0709259
0.0709259
0.0709259
0.0709258
0.0709258
0.0709258
0.0709258
0.0709258
0.0709258
0.0709258
0.0709258
0.0709258
0.0709258
0.0709258
0.0709258
0.0709258
0.0709258
0.0709258
0.0709258
0.0709258
0.0709258
0.0709258
0.0709257
0.0709257
0.0709257
0.0709257
0.0709257
0.0709257
0.0709257
0.0709257
0.0709257
0.0709257
0.0709257
0.0709257
0.0709257
0.0709257
0.0709257
0.0709256
0.0709256
0.0709256
0.0709256
0.0709256
0.0709256
0.0709256
0.0709256
0.0709256
0.0709256
0.0709256
0.0709256
0.0709256
0.0709255
0.0709255
0.0709255
0.0709255
0.0709255
0.0709255
0.0709255
0.0709255
0.0709255
0.0709255
0.0709255
0.0709254
0.0709254
0.0709254
0.0709254
0.0709254
0.0709254
0.0709254
0.0709254
0.0709254
0.0709254
0.0709253
0.0709253
0.0709253
0.0709253
0.0709253
0.0709253
0.0709253
0.0709253
0.0709253
0.0709252
0.0709252
0.0709252
0.0709252
0.0709252
0.0709252
0.0709252
0.0709251
0.0709251
0.0709251
0.0709251
0.0709251
0.0709251
0.0709251
0.070925
0.070925
0.070925
0.070925
0.070925
0.070925
0.0709249
0.0709249
0.0709249
0.0709249
0.0709249
0.0709248
0.0709248
0.0709248
0.0709248
0.0709248
0.0709247
0.0709247
0.0709247
0.0709247
0.0709246
0.0709246
0.0709246
0.0709246
0.0709245
0.0709245
0.0709245
0.0709245
0.0709244
0.0709244
0.0709244
0.0709244
0.0709243
0.0709243
0.0709243
0.0709242
0.0709242
0.0709242
0.0709241
0.0709241
0.070924
0.070924
0.070924
0.0709239
0.0709239
0.0709238
0.0709238
0.0709237
0.0709237
0.0709237
0.0709236
0.0709236
0.0709235
0.0709234
0.0709234
0.0709233
0.0709233
0.0709232
0.0709231
0.0709231
0.070923
0.0709229
0.0709229
0.0709228
0.0709227
0.0709226
0.0709225
0.0709224
0.0709223
0.0709222
0.0709221
0.070922
0.0709219
0.0709218
0.0709217
0.0709215
0.0709214
0.0709213
0.0709211
0.0709209
0.0709208
0.0709206
0.0709204
0.0709202
0.07092
0.0709198
0.0709195
0.0709193
0.070919
0.0709187
0.0709184
0.070918
0.0709177
0.0709172
0.0709168
0.0709163
0.0709158
0.0709152
0.0709145
0.0709138
0.070913
0.0709121
0.070911
0.0709098
0.0709084
0.0709068
0.0709049
0.0709026
0.0708998
0.0708965
0.0708923
0.0708869
0.0708799
0.0708702
0.0708561
0.0708341
0.0707968
0.0707268
0.0705779
0.070197
0.0689917
0.0644248
0.0358007
0.0178883
0.00891592
0.0044432
0.00221522
0.00110512
0.000551683
0.000275571
0.000137717
6.88472e-05
3.44241e-05
1.72134e-05
8.60722e-06
4.3036e-06
2.15165e-06
1.07569e-06
5.37799e-07
2.68892e-07
1.34499e-07
6.73006e-08
3.37533e-08
1.70217e-08
8.63221e-09
4.35685e-09
2.45791e-09
1.70946e-09
1.04485e-09
6.37579e-10
4.34366e-10
3.29772e-10
2.79126e-10
2.56609e-10
2.4446e-10
2.3758e-10
2.32127e-10
2.29427e-10
2.27935e-10
2.27115e-10
2.26815e-10
2.26519e-10
2.26352e-10
2.2626e-10
2.26221e-10
2.2619e-10
2.26177e-10
2.26169e-10
2.26165e-10
2.26164e-10
2.26163e-10
2.26164e-10
2.26165e-10
2.26166e-10
2.26167e-10
2.26169e-10
2.2617e-10
2.26172e-10
2.26173e-10
2.26174e-10
2.26175e-10
2.26177e-10
2.26178e-10
2.26179e-10
2.2618e-10
2.26181e-10
2.26183e-10
2.26184e-10
2.26185e-10
2.26187e-10
2.26188e-10
2.26189e-10
2.26191e-10
2.26192e-10
2.26193e-10
2.26195e-10
2.26196e-10
2.26198e-10
2.26199e-10
2.262e-10
2.26202e-10
2.26203e-10
2.26205e-10
2.26206e-10
2.26207e-10
2.26208e-10
2.2621e-10
2.26211e-10
2.26212e-10
2.26214e-10
2.26215e-10
2.26216e-10
2.26217e-10
2.26218e-10
2.2622e-10
2.26222e-10
2.26222e-10
2.26224e-10
2.26225e-10
2.26226e-10
2.26228e-10
)
;

boundaryField
{
    fixedWall
    {
        type            zeroGradient;
    }
    outlet
    {
        type            inletOutlet;
        inletValue      uniform 0;
        value           uniform 2.26228e-10;
    }
    defaultFaces
    {
        type            empty;
    }
}


// ************************************************************************* //
