/*--------------------------------*- C++ -*----------------------------------*\
| =========                 |                                                 |
| \\      /  F ield         | OpenFOAM: The Open Source CFD Toolbox           |
|  \\    /   O peration     | Version:  2406                                  |
|   \\  /    A nd           | Website:  www.openfoam.com                      |
|    \\/     M anipulation  |                                                 |
\*---------------------------------------------------------------------------*/
FoamFile
{
    version     2.0;
    format      ascii;
    arch        "LSB;label=32;scalar=64";
    class       volVectorField;
    location    "5.6";
    object      U;
}
// * * * * * * * * * * * * * * * * * * * * * * * * * * * * * * * * * * * * * //

dimensions      [0 1 -1 0 0 0 0];

internalField   nonuniform List<vector> 
1000
(
(-2.39997e-06 0 0)
(-1.15973e-05 0 0)
(-2.91563e-05 0 0)
(-5.228e-05 0 0)
(-7.95081e-05 0 0)
(-0.000109973 0 0)
(-0.000143055 0 0)
(-0.000178261 0 0)
(-0.000215189 0 0)
(-0.000253514 0 0)
(-0.000292971 0 0)
(-0.000333337 0 0)
(-0.000374426 0 0)
(-0.000416078 0 0)
(-0.000458154 0 0)
(-0.000500536 0 0)
(-0.000543117 0 0)
(-0.000585805 0 0)
(-0.000628519 0 0)
(-0.000671185 0 0)
(-0.000713737 0 0)
(-0.000756116 0 0)
(-0.00079827 0 0)
(-0.000840149 0 0)
(-0.000881712 0 0)
(-0.000922917 0 0)
(-0.00096373 0 0)
(-0.00100412 0 0)
(-0.00104405 0 0)
(-0.0010835 0 0)
(-0.00112245 0 0)
(-0.00116086 0 0)
(-0.00119873 0 0)
(-0.00123603 0 0)
(-0.00127275 0 0)
(-0.00130888 0 0)
(-0.00134439 0 0)
(-0.00137929 0 0)
(-0.00141355 0 0)
(-0.00144718 0 0)
(-0.00148016 0 0)
(-0.00151248 0 0)
(-0.00154416 0 0)
(-0.00157517 0 0)
(-0.00160552 0 0)
(-0.0016352 0 0)
(-0.00166422 0 0)
(-0.00169257 0 0)
(-0.00172025 0 0)
(-0.00174728 0 0)
(-0.00177364 0 0)
(-0.00179935 0 0)
(-0.0018244 0 0)
(-0.0018488 0 0)
(-0.00187256 0 0)
(-0.00189568 0 0)
(-0.00191816 0 0)
(-0.00194002 0 0)
(-0.00196126 0 0)
(-0.00198189 0 0)
(-0.00200191 0 0)
(-0.00202134 0 0)
(-0.00204018 0 0)
(-0.00205844 0 0)
(-0.00207613 0 0)
(-0.00209326 0 0)
(-0.00210984 0 0)
(-0.00212588 0 0)
(-0.00214139 0 0)
(-0.00215638 0 0)
(-0.00217086 0 0)
(-0.00218484 0 0)
(-0.00219834 0 0)
(-0.00221135 0 0)
(-0.0022239 0 0)
(-0.002236 0 0)
(-0.00224764 0 0)
(-0.00225886 0 0)
(-0.00226965 0 0)
(-0.00228003 0 0)
(-0.00229001 0 0)
(-0.0022996 0 0)
(-0.00230881 0 0)
(-0.00231765 0 0)
(-0.00232613 0 0)
(-0.00233427 0 0)
(-0.00234206 0 0)
(-0.00234954 0 0)
(-0.00235669 0 0)
(-0.00236355 0 0)
(-0.0023701 0 0)
(-0.00237637 0 0)
(-0.00238236 0 0)
(-0.00238809 0 0)
(-0.00239355 0 0)
(-0.00239877 0 0)
(-0.00240376 0 0)
(-0.00240851 0 0)
(-0.00241304 0 0)
(-0.00241735 0 0)
(-0.00242147 0 0)
(-0.00242539 0 0)
(-0.00242912 0 0)
(-0.00243266 0 0)
(-0.00243602 0 0)
(-0.00243921 0 0)
(-0.00244224 0 0)
(-0.00244511 0 0)
(-0.00244784 0 0)
(-0.00245045 0 0)
(-0.00245292 0 0)
(-0.00245526 0 0)
(-0.00245748 0 0)
(-0.00245959 0 0)
(-0.00246158 0 0)
(-0.00246347 0 0)
(-0.00246526 0 0)
(-0.00246695 0 0)
(-0.00246855 0 0)
(-0.00247007 0 0)
(-0.0024715 0 0)
(-0.00247286 0 0)
(-0.00247414 0 0)
(-0.00247535 0 0)
(-0.0024765 0 0)
(-0.00247758 0 0)
(-0.00247861 0 0)
(-0.00247958 0 0)
(-0.00248049 0 0)
(-0.00248136 0 0)
(-0.00248218 0 0)
(-0.00248295 0 0)
(-0.00248368 0 0)
(-0.00248437 0 0)
(-0.00248503 0 0)
(-0.00248565 0 0)
(-0.00248624 0 0)
(-0.00248679 0 0)
(-0.00248732 0 0)
(-0.00248782 0 0)
(-0.0024883 0 0)
(-0.00248875 0 0)
(-0.00248918 0 0)
(-0.0024896 0 0)
(-0.00248997 0 0)
(-0.00249034 0 0)
(-0.0024907 0 0)
(-0.00249105 0 0)
(-0.00249137 0 0)
(-0.00249167 0 0)
(-0.00249197 0 0)
(-0.00249225 0 0)
(-0.00249253 0 0)
(-0.00249279 0 0)
(-0.00249305 0 0)
(-0.00249329 0 0)
(-0.00249353 0 0)
(-0.00249376 0 0)
(-0.00249398 0 0)
(-0.0024942 0 0)
(-0.00249441 0 0)
(-0.00249461 0 0)
(-0.00249481 0 0)
(-0.002495 0 0)
(-0.00249519 0 0)
(-0.00249538 0 0)
(-0.00249556 0 0)
(-0.00249574 0 0)
(-0.00249592 0 0)
(-0.00249609 0 0)
(-0.00249626 0 0)
(-0.00249643 0 0)
(-0.0024966 0 0)
(-0.00249676 0 0)
(-0.00249692 0 0)
(-0.00249708 0 0)
(-0.00249724 0 0)
(-0.0024974 0 0)
(-0.00249756 0 0)
(-0.00249771 0 0)
(-0.00249787 0 0)
(-0.00249802 0 0)
(-0.00249817 0 0)
(-0.00249832 0 0)
(-0.00249848 0 0)
(-0.00249863 0 0)
(-0.00249878 0 0)
(-0.00249893 0 0)
(-0.00249908 0 0)
(-0.00249922 0 0)
(-0.00249937 0 0)
(-0.00249952 0 0)
(-0.00249967 0 0)
(-0.00249982 0 0)
(-0.00249996 0 0)
(-0.00250011 0 0)
(-0.00250026 0 0)
(-0.0025004 0 0)
(-0.00250055 0 0)
(-0.0025007 0 0)
(-0.00250084 0 0)
(-0.00250099 0 0)
(-0.00250113 0 0)
(-0.00250128 0 0)
(-0.00250143 0 0)
(-0.00250157 0 0)
(-0.00250172 0 0)
(-0.00250186 0 0)
(-0.00250201 0 0)
(-0.00250215 0 0)
(-0.0025023 0 0)
(-0.00250244 0 0)
(-0.00250259 0 0)
(-0.00250273 0 0)
(-0.00250288 0 0)
(-0.00250302 0 0)
(-0.00250317 0 0)
(-0.00250331 0 0)
(-0.00250346 0 0)
(-0.0025036 0 0)
(-0.00250375 0 0)
(-0.00250389 0 0)
(-0.00250404 0 0)
(-0.00250418 0 0)
(-0.00250432 0 0)
(-0.00250447 0 0)
(-0.00250461 0 0)
(-0.00250476 0 0)
(-0.0025049 0 0)
(-0.00250505 0 0)
(-0.00250519 0 0)
(-0.00250533 0 0)
(-0.00250548 0 0)
(-0.00250562 0 0)
(-0.00250577 0 0)
(-0.00250591 0 0)
(-0.00250605 0 0)
(-0.0025062 0 0)
(-0.00250634 0 0)
(-0.00250649 0 0)
(-0.00250663 0 0)
(-0.00250677 0 0)
(-0.00250692 0 0)
(-0.00250706 0 0)
(-0.0025072 0 0)
(-0.00250735 0 0)
(-0.00250749 0 0)
(-0.00250763 0 0)
(-0.00250778 0 0)
(-0.00250792 0 0)
(-0.00250807 0 0)
(-0.00250821 0 0)
(-0.00250835 0 0)
(-0.0025085 0 0)
(-0.00250864 0 0)
(-0.00250878 0 0)
(-0.00250893 0 0)
(-0.00250907 0 0)
(-0.00250922 0 0)
(-0.00250936 0 0)
(-0.0025095 0 0)
(-0.00250965 0 0)
(-0.00250979 0 0)
(-0.00250994 0 0)
(-0.00251008 0 0)
(-0.00251022 0 0)
(-0.00251037 0 0)
(-0.00251051 0 0)
(-0.00251066 0 0)
(-0.0025108 0 0)
(-0.00251095 0 0)
(-0.00251109 0 0)
(-0.00251123 0 0)
(-0.00251138 0 0)
(-0.00251152 0 0)
(-0.00251167 0 0)
(-0.00251181 0 0)
(-0.00251196 0 0)
(-0.0025121 0 0)
(-0.00251225 0 0)
(-0.0025124 0 0)
(-0.00251254 0 0)
(-0.00251269 0 0)
(-0.00251283 0 0)
(-0.00251298 0 0)
(-0.00251313 0 0)
(-0.00251327 0 0)
(-0.00251342 0 0)
(-0.00251356 0 0)
(-0.00251371 0 0)
(-0.00251386 0 0)
(-0.002514 0 0)
(-0.00251415 0 0)
(-0.0025143 0 0)
(-0.00251445 0 0)
(-0.00251459 0 0)
(-0.00251474 0 0)
(-0.00251489 0 0)
(-0.00251504 0 0)
(-0.00251519 0 0)
(-0.00251533 0 0)
(-0.00251548 0 0)
(-0.00251563 0 0)
(-0.00251578 0 0)
(-0.00251593 0 0)
(-0.00251608 0 0)
(-0.00251623 0 0)
(-0.00251638 0 0)
(-0.00251653 0 0)
(-0.00251668 0 0)
(-0.00251683 0 0)
(-0.00251698 0 0)
(-0.00251713 0 0)
(-0.00251728 0 0)
(-0.00251743 0 0)
(-0.00251758 0 0)
(-0.00251773 0 0)
(-0.00251788 0 0)
(-0.00251803 0 0)
(-0.00251818 0 0)
(-0.00251834 0 0)
(-0.00251849 0 0)
(-0.00251864 0 0)
(-0.00251879 0 0)
(-0.00251894 0 0)
(-0.0025191 0 0)
(-0.00251925 0 0)
(-0.0025194 0 0)
(-0.00251955 0 0)
(-0.00251971 0 0)
(-0.00251986 0 0)
(-0.00252002 0 0)
(-0.00252017 0 0)
(-0.00252032 0 0)
(-0.00252048 0 0)
(-0.00252063 0 0)
(-0.00252079 0 0)
(-0.00252094 0 0)
(-0.0025211 0 0)
(-0.00252125 0 0)
(-0.00252141 0 0)
(-0.00252156 0 0)
(-0.00252172 0 0)
(-0.00252187 0 0)
(-0.00252203 0 0)
(-0.00252219 0 0)
(-0.00252234 0 0)
(-0.0025225 0 0)
(-0.00252266 0 0)
(-0.00252282 0 0)
(-0.00252297 0 0)
(-0.00252313 0 0)
(-0.00252329 0 0)
(-0.00252345 0 0)
(-0.00252361 0 0)
(-0.00252377 0 0)
(-0.00252393 0 0)
(-0.00252409 0 0)
(-0.00252425 0 0)
(-0.00252441 0 0)
(-0.00252457 0 0)
(-0.00252473 0 0)
(-0.00252489 0 0)
(-0.00252505 0 0)
(-0.00252521 0 0)
(-0.00252537 0 0)
(-0.00252554 0 0)
(-0.0025257 0 0)
(-0.00252586 0 0)
(-0.00252603 0 0)
(-0.00252619 0 0)
(-0.00252635 0 0)
(-0.00252652 0 0)
(-0.00252668 0 0)
(-0.00252685 0 0)
(-0.00252702 0 0)
(-0.00252718 0 0)
(-0.00252735 0 0)
(-0.00252751 0 0)
(-0.00252768 0 0)
(-0.00252785 0 0)
(-0.00252801 0 0)
(-0.00252818 0 0)
(-0.00252835 0 0)
(-0.00252852 0 0)
(-0.00252869 0 0)
(-0.00252885 0 0)
(-0.00252902 0 0)
(-0.00252919 0 0)
(-0.00252936 0 0)
(-0.00252953 0 0)
(-0.0025297 0 0)
(-0.00252987 0 0)
(-0.00253004 0 0)
(-0.00253021 0 0)
(-0.00253038 0 0)
(-0.00253055 0 0)
(-0.00253072 0 0)
(-0.00253089 0 0)
(-0.00253106 0 0)
(-0.00253123 0 0)
(-0.0025314 0 0)
(-0.00253157 0 0)
(-0.00253174 0 0)
(-0.00253191 0 0)
(-0.00253208 0 0)
(-0.00253225 0 0)
(-0.00253242 0 0)
(-0.00253259 0 0)
(-0.00253276 0 0)
(-0.00253293 0 0)
(-0.0025331 0 0)
(-0.00253327 0 0)
(-0.00253344 0 0)
(-0.00253361 0 0)
(-0.00253378 0 0)
(-0.00253395 0 0)
(-0.00253411 0 0)
(-0.00253428 0 0)
(-0.00253445 0 0)
(-0.00253462 0 0)
(-0.00253479 0 0)
(-0.00253496 0 0)
(-0.00253512 0 0)
(-0.00253529 0 0)
(-0.00253546 0 0)
(-0.00253563 0 0)
(-0.00253579 0 0)
(-0.00253596 0 0)
(-0.00253613 0 0)
(-0.00253629 0 0)
(-0.00253646 0 0)
(-0.00253663 0 0)
(-0.00253679 0 0)
(-0.00253696 0 0)
(-0.00253713 0 0)
(-0.00253729 0 0)
(-0.00253746 0 0)
(-0.00253763 0 0)
(-0.00253779 0 0)
(-0.00253796 0 0)
(-0.00253813 0 0)
(-0.00253829 0 0)
(-0.00253846 0 0)
(-0.00253863 0 0)
(-0.0025388 0 0)
(-0.00253896 0 0)
(-0.00253913 0 0)
(-0.0025393 0 0)
(-0.00253947 0 0)
(-0.00253964 0 0)
(-0.0025398 0 0)
(-0.00253997 0 0)
(-0.00254014 0 0)
(-0.00254031 0 0)
(-0.00254048 0 0)
(-0.00254065 0 0)
(-0.00254082 0 0)
(-0.002541 0 0)
(-0.00254117 0 0)
(-0.00254134 0 0)
(-0.00254151 0 0)
(-0.00254168 0 0)
(-0.00254186 0 0)
(-0.00254203 0 0)
(-0.0025422 0 0)
(-0.00254238 0 0)
(-0.00254255 0 0)
(-0.00254273 0 0)
(-0.0025429 0 0)
(-0.00254308 0 0)
(-0.00254325 0 0)
(-0.00254343 0 0)
(-0.00254361 0 0)
(-0.00254378 0 0)
(-0.00254396 0 0)
(-0.00254414 0 0)
(-0.00254432 0 0)
(-0.00254449 0 0)
(-0.00254467 0 0)
(-0.00254485 0 0)
(-0.00254503 0 0)
(-0.00254521 0 0)
(-0.00254539 0 0)
(-0.00254557 0 0)
(-0.00254575 0 0)
(-0.00254593 0 0)
(-0.00254611 0 0)
(-0.00254629 0 0)
(-0.00254647 0 0)
(-0.00254665 0 0)
(-0.00254683 0 0)
(-0.00254701 0 0)
(-0.00254719 0 0)
(-0.00254737 0 0)
(-0.00254755 0 0)
(-0.00254773 0 0)
(-0.00254791 0 0)
(-0.00254809 0 0)
(-0.00254828 0 0)
(-0.00254846 0 0)
(-0.00254864 0 0)
(-0.00254882 0 0)
(-0.002549 0 0)
(-0.00254918 0 0)
(-0.00254936 0 0)
(-0.00254955 0 0)
(-0.00254973 0 0)
(-0.00254991 0 0)
(-0.00255009 0 0)
(-0.00255027 0 0)
(-0.00255045 0 0)
(-0.00255064 0 0)
(-0.00255082 0 0)
(-0.002551 0 0)
(-0.00255118 0 0)
(-0.00255137 0 0)
(-0.00255155 0 0)
(-0.00255173 0 0)
(-0.00255192 0 0)
(-0.0025521 0 0)
(-0.00255229 0 0)
(-0.00255247 0 0)
(-0.00255265 0 0)
(-0.00255284 0 0)
(-0.00255302 0 0)
(-0.00255321 0 0)
(-0.0025534 0 0)
(-0.00255358 0 0)
(-0.00255377 0 0)
(-0.00255395 0 0)
(-0.00255414 0 0)
(-0.00255433 0 0)
(-0.00255452 0 0)
(-0.0025547 0 0)
(-0.00255489 0 0)
(-0.00255508 0 0)
(-0.00255527 0 0)
(-0.00255546 0 0)
(-0.00255565 0 0)
(-0.00255584 0 0)
(-0.00255603 0 0)
(-0.00255622 0 0)
(-0.00255641 0 0)
(-0.0025566 0 0)
(-0.00255679 0 0)
(-0.00255698 0 0)
(-0.00255717 0 0)
(-0.00255736 0 0)
(-0.00255755 0 0)
(-0.00255774 0 0)
(-0.00255794 0 0)
(-0.00255812 0 0)
(-0.00255832 0 0)
(-0.0025585 0 0)
(-0.0025587 0 0)
(-0.00255889 0 0)
(-0.00255907 0 0)
(-0.00255928 0 0)
(-0.00255946 0 0)
(-0.00255965 0 0)
(-0.00255984 0 0)
(-0.00256003 0 0)
(-0.00256022 0 0)
(-0.00256041 0 0)
(-0.0025606 0 0)
(-0.00256079 0 0)
(-0.00256098 0 0)
(-0.00256117 0 0)
(-0.00256136 0 0)
(-0.00256155 0 0)
(-0.00256173 0 0)
(-0.00256192 0 0)
(-0.00256211 0 0)
(-0.00256229 0 0)
(-0.00256248 0 0)
(-0.00256267 0 0)
(-0.00256285 0 0)
(-0.00256304 0 0)
(-0.00256323 0 0)
(-0.00256341 0 0)
(-0.0025636 0 0)
(-0.00256378 0 0)
(-0.00256397 0 0)
(-0.00256416 0 0)
(-0.00256434 0 0)
(-0.00256453 0 0)
(-0.00256471 0 0)
(-0.0025649 0 0)
(-0.00256509 0 0)
(-0.00256528 0 0)
(-0.00256546 0 0)
(-0.00256565 0 0)
(-0.00256584 0 0)
(-0.00256603 0 0)
(-0.00256622 0 0)
(-0.00256642 0 0)
(-0.00256661 0 0)
(-0.0025668 0 0)
(-0.002567 0 0)
(-0.00256719 0 0)
(-0.00256739 0 0)
(-0.00256758 0 0)
(-0.00256778 0 0)
(-0.00256798 0 0)
(-0.00256818 0 0)
(-0.00256838 0 0)
(-0.00256859 0 0)
(-0.00256879 0 0)
(-0.00256899 0 0)
(-0.0025692 0 0)
(-0.00256941 0 0)
(-0.00256961 0 0)
(-0.00256982 0 0)
(-0.00257003 0 0)
(-0.00257024 0 0)
(-0.00257045 0 0)
(-0.00257066 0 0)
(-0.00257087 0 0)
(-0.00257109 0 0)
(-0.0025713 0 0)
(-0.00257151 0 0)
(-0.00257173 0 0)
(-0.00257194 0 0)
(-0.00257215 0 0)
(-0.00257237 0 0)
(-0.00257258 0 0)
(-0.00257279 0 0)
(-0.00257301 0 0)
(-0.00257322 0 0)
(-0.00257343 0 0)
(-0.00257364 0 0)
(-0.00257385 0 0)
(-0.00257406 0 0)
(-0.00257427 0 0)
(-0.00257448 0 0)
(-0.00257469 0 0)
(-0.0025749 0 0)
(-0.00257511 0 0)
(-0.00257531 0 0)
(-0.00257552 0 0)
(-0.00257572 0 0)
(-0.00257592 0 0)
(-0.00257613 0 0)
(-0.00257633 0 0)
(-0.00257653 0 0)
(-0.00257673 0 0)
(-0.00257693 0 0)
(-0.00257713 0 0)
(-0.00257733 0 0)
(-0.00257753 0 0)
(-0.00257773 0 0)
(-0.00257793 0 0)
(-0.00257813 0 0)
(-0.00257833 0 0)
(-0.00257852 0 0)
(-0.00257872 0 0)
(-0.00257892 0 0)
(-0.00257913 0 0)
(-0.00257933 0 0)
(-0.00257953 0 0)
(-0.00257973 0 0)
(-0.00257994 0 0)
(-0.00258014 0 0)
(-0.00258035 0 0)
(-0.00258055 0 0)
(-0.00258076 0 0)
(-0.00258097 0 0)
(-0.00258118 0 0)
(-0.0025814 0 0)
(-0.00258161 0 0)
(-0.00258183 0 0)
(-0.00258204 0 0)
(-0.00258226 0 0)
(-0.00258248 0 0)
(-0.0025827 0 0)
(-0.00258292 0 0)
(-0.00258314 0 0)
(-0.00258336 0 0)
(-0.00258359 0 0)
(-0.00258381 0 0)
(-0.00258404 0 0)
(-0.00258426 0 0)
(-0.00258449 0 0)
(-0.00258472 0 0)
(-0.00258494 0 0)
(-0.00258517 0 0)
(-0.0025854 0 0)
(-0.00258562 0 0)
(-0.00258585 0 0)
(-0.00258608 0 0)
(-0.0025863 0 0)
(-0.00258653 0 0)
(-0.00258675 0 0)
(-0.00258697 0 0)
(-0.0025872 0 0)
(-0.00258742 0 0)
(-0.00258764 0 0)
(-0.00258786 0 0)
(-0.00258808 0 0)
(-0.0025883 0 0)
(-0.00258851 0 0)
(-0.00258873 0 0)
(-0.00258894 0 0)
(-0.00258916 0 0)
(-0.00258937 0 0)
(-0.00258958 0 0)
(-0.00258979 0 0)
(-0.00259 0 0)
(-0.0025902 0 0)
(-0.00259041 0 0)
(-0.00259062 0 0)
(-0.00259082 0 0)
(-0.00259102 0 0)
(-0.00259123 0 0)
(-0.00259143 0 0)
(-0.00259163 0 0)
(-0.00259183 0 0)
(-0.00259203 0 0)
(-0.00259222 0 0)
(-0.00259242 0 0)
(-0.00259262 0 0)
(-0.00259281 0 0)
(-0.00259301 0 0)
(-0.0025932 0 0)
(-0.0025934 0 0)
(-0.00259359 0 0)
(-0.00259378 0 0)
(-0.00259398 0 0)
(-0.00259417 0 0)
(-0.00259437 0 0)
(-0.00259456 0 0)
(-0.00259476 0 0)
(-0.00259496 0 0)
(-0.00259514 0 0)
(-0.00259536 0 0)
(-0.00259555 0 0)
(-0.00259575 0 0)
(-0.00259595 0 0)
(-0.00259615 0 0)
(-0.00259636 0 0)
(-0.00259657 0 0)
(-0.00259678 0 0)
(-0.002597 0 0)
(-0.00259722 0 0)
(-0.00259744 0 0)
(-0.00259766 0 0)
(-0.00259789 0 0)
(-0.00259812 0 0)
(-0.00259835 0 0)
(-0.00259859 0 0)
(-0.00259883 0 0)
(-0.00259907 0 0)
(-0.00259932 0 0)
(-0.00259957 0 0)
(-0.00259982 0 0)
(-0.00260008 0 0)
(-0.00260033 0 0)
(-0.00260059 0 0)
(-0.00260085 0 0)
(-0.00260112 0 0)
(-0.00260138 0 0)
(-0.00260165 0 0)
(-0.00260191 0 0)
(-0.00260217 0 0)
(-0.00260244 0 0)
(-0.0026027 0 0)
(-0.00260296 0 0)
(-0.00260322 0 0)
(-0.00260348 0 0)
(-0.00260374 0 0)
(-0.00260398 0 0)
(-0.00260424 0 0)
(-0.00260448 0 0)
(-0.00260472 0 0)
(-0.00260497 0 0)
(-0.0026052 0 0)
(-0.00260544 0 0)
(-0.00260567 0 0)
(-0.00260591 0 0)
(-0.00260613 0 0)
(-0.00260635 0 0)
(-0.00260658 0 0)
(-0.00260681 0 0)
(-0.00260703 0 0)
(-0.00260726 0 0)
(-0.00260748 0 0)
(-0.00260771 0 0)
(-0.00260794 0 0)
(-0.00260815 0 0)
(-0.00260839 0 0)
(-0.00260862 0 0)
(-0.00260885 0 0)
(-0.00260909 0 0)
(-0.00260932 0 0)
(-0.00260956 0 0)
(-0.0026098 0 0)
(-0.00261004 0 0)
(-0.00261028 0 0)
(-0.00261051 0 0)
(-0.00261075 0 0)
(-0.00261099 0 0)
(-0.00261122 0 0)
(-0.00261146 0 0)
(-0.00261169 0 0)
(-0.00261191 0 0)
(-0.00261213 0 0)
(-0.00261235 0 0)
(-0.00261256 0 0)
(-0.00261278 0 0)
(-0.00261298 0 0)
(-0.00261317 0 0)
(-0.00261337 0 0)
(-0.00261355 0 0)
(-0.00261374 0 0)
(-0.00261391 0 0)
(-0.00261409 0 0)
(-0.00261425 0 0)
(-0.00261442 0 0)
(-0.00261457 0 0)
(-0.00261472 0 0)
(-0.00261487 0 0)
(-0.00261501 0 0)
(-0.00261515 0 0)
(-0.00261528 0 0)
(-0.00261541 0 0)
(-0.00261553 0 0)
(-0.00261565 0 0)
(-0.00261577 0 0)
(-0.00261589 0 0)
(-0.00261601 0 0)
(-0.00261614 0 0)
(-0.00261627 0 0)
(-0.00261642 0 0)
(-0.00261656 0 0)
(-0.00261673 0 0)
(-0.00261689 0 0)
(-0.0026171 0 0)
(-0.0026173 0 0)
(-0.0026175 0 0)
(-0.00261773 0 0)
(-0.00261796 0 0)
(-0.00261821 0 0)
(-0.00261846 0 0)
(-0.00261869 0 0)
(-0.00261894 0 0)
(-0.00261917 0 0)
(-0.00261937 0 0)
(-0.00261958 0 0)
(-0.00261974 0 0)
(-0.00261989 0 0)
(-0.00262001 0 0)
(-0.0026201 0 0)
(-0.00262016 0 0)
(-0.00262018 0 0)
(-0.00262018 0 0)
(-0.00262015 0 0)
(-0.0026201 0 0)
(-0.00262003 0 0)
(-0.00261995 0 0)
(-0.00261986 0 0)
(-0.00261976 0 0)
(-0.00261968 0 0)
(-0.0026196 0 0)
(-0.00261953 0 0)
(-0.00261948 0 0)
(-0.00261944 0 0)
(-0.00261941 0 0)
(-0.00261937 0 0)
(-0.00261933 0 0)
(-0.00261926 0 0)
(-0.00261916 0 0)
(-0.00261904 0 0)
(-0.00261888 0 0)
(-0.00261869 0 0)
(-0.00261851 0 0)
(-0.00261834 0 0)
(-0.00261824 0 0)
(-0.00261812 0 0)
(-0.00261819 0 0)
(-0.00261809 0 0)
(-0.00261806 0 0)
(-0.00261787 0 0)
(-0.00261716 0 0)
(-0.00261598 0 0)
(-0.00261386 0 0)
(-0.00261073 0 0)
(-0.00260625 0 0)
(-0.0026003 0 0)
(-0.00259274 0 0)
(-0.00258269 0 0)
(-0.00257076 0 0)
(-0.00255253 0 0)
(-0.00253041 0 0)
(-0.00248776 0 0)
(-0.00242127 0 0)
(-0.00238389 0 0)
(-0.00212655 0 0)
(-0.00191071 0 0)
(0.000181772 0 0)
(0.016732 0 0)
(0.04842 0 0)
(0.0762409 0 0)
(0.092649 0 0)
(0.101019 0 0)
(0.105069 0 0)
(0.10694 0 0)
(0.107832 0 0)
(0.108257 0 0)
(0.108508 0 0)
(0.108617 0 0)
(0.108666 0 0)
(0.108671 0 0)
(0.108773 0 0)
(0.10876 0 0)
(0.108658 0 0)
(0.108759 0 0)
(0.108798 0 0)
(0.108674 0 0)
(0.108773 0 0)
(0.108735 0 0)
(0.10874 0 0)
(0.108722 0 0)
(0.108745 0 0)
(0.108791 0 0)
(0.108668 0 0)
(0.10877 0 0)
(0.108745 0 0)
(0.108734 0 0)
(0.108743 0 0)
(0.108713 0 0)
(0.108771 0 0)
(0.108714 0 0)
(0.108745 0 0)
(0.10877 0 0)
(0.108696 0 0)
(0.108747 0 0)
(0.108742 0 0)
(0.108737 0 0)
(0.108737 0 0)
(0.108743 0 0)
(0.108711 0 0)
(0.10876 0 0)
(0.108761 0 0)
(0.108676 0 0)
(0.108772 0 0)
(0.108772 0 0)
(0.108676 0 0)
(0.108751 0 0)
(0.108775 0 0)
(0.108685 0 0)
(0.108732 0 0)
(0.108793 0 0)
(0.108691 0 0)
(0.10873 0 0)
(0.108748 0 0)
(0.108739 0 0)
(0.108714 0 0)
(0.108743 0 0)
(0.108767 0 0)
(0.108683 0 0)
(0.108761 0 0)
(0.108733 0 0)
(0.108736 0 0)
(0.10875 0 0)
(0.108699 0 0)
(0.108729 0 0)
(0.108756 0 0)
(0.108738 0 0)
(0.108716 0 0)
(0.108739 0 0)
(0.108752 0 0)
(0.108701 0 0)
(0.10874 0 0)
(0.108763 0 0)
(0.108698 0 0)
(0.108746 0 0)
(0.108721 0 0)
(0.108752 0 0)
(0.108753 0 0)
(0.108682 0 0)
(0.10876 0 0)
(0.10872 0 0)
(0.108753 0 0)
(0.108731 0 0)
(0.108705 0 0)
(0.108759 0 0)
(0.108715 0 0)
(0.108729 0 0)
(0.108755 0 0)
(0.108754 0 0)
(0.10866 0 0)
(0.108741 0 0)
(0.108796 0 0)
(0.108686 0 0)
(0.108738 0 0)
(0.108723 0 0)
(0.10875 0 0)
(0.108752 0 0)
(0.108729 0 0)
)
;

boundaryField
{
    fixedWall
    {
        type            fixedValue;
        value           uniform (0 0 0);
    }
    outlet
    {
        type            pressureInletOutletVelocity;
        value           uniform (0.108729 0 0);
    }
    defaultFaces
    {
        type            empty;
    }
}


// ************************************************************************* //
