/*--------------------------------*- C++ -*----------------------------------*\
| =========                 |                                                 |
| \\      /  F ield         | OpenFOAM: The Open Source CFD Toolbox           |
|  \\    /   O peration     | Version:  2406                                  |
|   \\  /    A nd           | Website:  www.openfoam.com                      |
|    \\/     M anipulation  |                                                 |
\*---------------------------------------------------------------------------*/
FoamFile
{
    version     2.0;
    format      ascii;
    arch        "LSB;label=32;scalar=64";
    class       volScalarField;
    location    "1.8";
    object      CO2;
}
// * * * * * * * * * * * * * * * * * * * * * * * * * * * * * * * * * * * * * //

dimensions      [0 0 0 0 0 0 0];

internalField   nonuniform List<scalar> 
1000
(
0.0709257
0.0709257
0.0709257
0.0709257
0.0709257
0.0709257
0.0709257
0.0709257
0.0709257
0.0709257
0.0709257
0.0709257
0.0709257
0.0709257
0.0709257
0.0709257
0.0709257
0.0709257
0.0709258
0.0709258
0.0709258
0.0709258
0.0709258
0.0709258
0.0709258
0.0709259
0.0709259
0.0709259
0.0709259
0.0709259
0.0709259
0.0709259
0.0709259
0.0709259
0.0709259
0.070926
0.070926
0.070926
0.070926
0.070926
0.070926
0.070926
0.070926
0.070926
0.070926
0.070926
0.070926
0.070926
0.070926
0.070926
0.070926
0.070926
0.070926
0.0709259
0.0709259
0.0709259
0.0709259
0.0709259
0.0709259
0.0709259
0.0709259
0.0709259
0.0709259
0.0709259
0.0709259
0.0709259
0.0709259
0.0709259
0.0709259
0.0709259
0.0709259
0.0709259
0.0709259
0.0709258
0.0709258
0.0709258
0.0709258
0.0709258
0.0709258
0.0709258
0.0709258
0.0709258
0.0709258
0.0709258
0.0709258
0.0709258
0.0709258
0.0709258
0.0709258
0.0709258
0.0709257
0.0709257
0.0709257
0.0709257
0.0709257
0.0709257
0.0709257
0.0709257
0.0709257
0.0709257
0.0709257
0.0709257
0.0709257
0.0709257
0.0709256
0.0709256
0.0709256
0.0709256
0.0709256
0.0709256
0.0709256
0.0709256
0.0709256
0.0709256
0.0709256
0.0709256
0.0709256
0.0709255
0.0709255
0.0709255
0.0709255
0.0709255
0.0709255
0.0709255
0.0709255
0.0709255
0.0709255
0.0709254
0.0709254
0.0709254
0.0709254
0.0709254
0.0709254
0.0709254
0.0709254
0.0709254
0.0709254
0.0709253
0.0709253
0.0709253
0.0709253
0.0709253
0.0709253
0.0709253
0.0709253
0.0709252
0.0709252
0.0709252
0.0709252
0.0709252
0.0709252
0.0709252
0.0709252
0.0709251
0.0709251
0.0709251
0.0709251
0.0709251
0.0709251
0.070925
0.070925
0.070925
0.070925
0.070925
0.070925
0.0709249
0.0709249
0.0709249
0.0709249
0.0709249
0.0709248
0.0709248
0.0709248
0.0709248
0.0709248
0.0709247
0.0709247
0.0709247
0.0709247
0.0709246
0.0709246
0.0709246
0.0709246
0.0709245
0.0709245
0.0709245
0.0709245
0.0709244
0.0709244
0.0709244
0.0709243
0.0709243
0.0709243
0.0709242
0.0709242
0.0709242
0.0709241
0.0709241
0.0709241
0.070924
0.070924
0.0709239
0.0709239
0.0709239
0.0709238
0.0709238
0.0709237
0.0709237
0.0709236
0.0709236
0.0709235
0.0709235
0.0709234
0.0709233
0.0709233
0.0709232
0.0709232
0.0709231
0.070923
0.0709229
0.0709229
0.0709228
0.0709227
0.0709226
0.0709225
0.0709224
0.0709224
0.0709223
0.0709221
0.070922
0.0709219
0.0709218
0.0709217
0.0709215
0.0709214
0.0709213
0.0709211
0.0709209
0.0709208
0.0709206
0.0709204
0.0709202
0.07092
0.0709197
0.0709195
0.0709192
0.0709189
0.0709186
0.0709183
0.0709179
0.0709176
0.0709171
0.0709167
0.0709162
0.0709156
0.070915
0.0709143
0.0709135
0.0709127
0.0709118
0.0709107
0.0709095
0.070908
0.0709064
0.0709044
0.0709021
0.0708992
0.0708956
0.0708911
0.0708851
0.070877
0.0708656
0.0708489
0.0708232
0.0707818
0.0707102
0.0705679
0.0702141
0.0690994
0.0646257
0.030659
0.0147482
0.00724123
0.00359332
0.00179053
0.000893063
0.000445305
0.00022191
0.000110527
5.50303e-05
2.73929e-05
1.3634e-05
6.7855e-06
3.37695e-06
1.68057e-06
8.36327e-07
4.16186e-07
2.07112e-07
1.03076e-07
5.13079e-08
2.55604e-08
1.27416e-08
6.37593e-09
3.21171e-09
1.61565e-09
8.66169e-10
5.11173e-10
3.60333e-10
2.20239e-10
1.44036e-10
1.10797e-10
9.45407e-11
8.70839e-11
7.99675e-11
7.69387e-11
7.53996e-11
7.41656e-11
7.34928e-11
7.32111e-11
7.3048e-11
7.29501e-11
7.28969e-11
7.28432e-11
7.28257e-11
7.2814e-11
7.2808e-11
7.28027e-11
7.28007e-11
7.27995e-11
7.27988e-11
7.27984e-11
7.27982e-11
7.27981e-11
7.27981e-11
7.27982e-11
7.27982e-11
7.27983e-11
7.27984e-11
7.27985e-11
7.27986e-11
7.27987e-11
7.27988e-11
7.27988e-11
7.2799e-11
7.27991e-11
7.27992e-11
7.27992e-11
7.27993e-11
7.27995e-11
7.27996e-11
7.27997e-11
7.27998e-11
7.27999e-11
7.28e-11
7.28e-11
7.28002e-11
7.28002e-11
7.28003e-11
7.28004e-11
7.28006e-11
7.28006e-11
7.28007e-11
7.28008e-11
7.28009e-11
7.2801e-11
7.28011e-11
7.28012e-11
7.28013e-11
7.28014e-11
7.28015e-11
7.28016e-11
7.28017e-11
7.28018e-11
7.28019e-11
7.2802e-11
7.28021e-11
7.28022e-11
7.28023e-11
7.28023e-11
7.28025e-11
7.28025e-11
7.28027e-11
7.28027e-11
7.28028e-11
7.28029e-11
7.2803e-11
7.28031e-11
7.28033e-11
7.28033e-11
7.28034e-11
7.28035e-11
7.28036e-11
7.28037e-11
7.28038e-11
7.28039e-11
7.2804e-11
7.28041e-11
7.28042e-11
7.28042e-11
7.28043e-11
7.28044e-11
7.28046e-11
7.28046e-11
7.28048e-11
7.28049e-11
7.2805e-11
7.2805e-11
7.28051e-11
7.28052e-11
7.28053e-11
7.28054e-11
7.28055e-11
7.28056e-11
7.28057e-11
7.28058e-11
7.28059e-11
7.2806e-11
7.28061e-11
7.28062e-11
7.28062e-11
7.28064e-11
7.28064e-11
7.28065e-11
7.28066e-11
7.28067e-11
7.28068e-11
7.28069e-11
7.2807e-11
7.28071e-11
7.28072e-11
7.28073e-11
7.28074e-11
7.28075e-11
7.28076e-11
7.28077e-11
7.28078e-11
7.28079e-11
7.2808e-11
7.28081e-11
7.28082e-11
7.28082e-11
7.28084e-11
7.28085e-11
7.28086e-11
7.28087e-11
7.28087e-11
7.28088e-11
7.28089e-11
7.2809e-11
7.28091e-11
7.28092e-11
7.28093e-11
7.28094e-11
7.28095e-11
7.28096e-11
7.28097e-11
7.28098e-11
7.28099e-11
7.281e-11
7.28101e-11
7.28102e-11
7.28102e-11
7.28104e-11
7.28105e-11
7.28105e-11
7.28106e-11
7.28107e-11
7.28108e-11
7.28109e-11
7.28111e-11
7.28111e-11
7.28113e-11
7.28114e-11
7.28114e-11
7.28115e-11
7.28116e-11
7.28117e-11
7.28118e-11
7.28119e-11
7.2812e-11
7.28121e-11
7.28122e-11
7.28123e-11
7.28124e-11
7.28125e-11
7.28126e-11
7.28127e-11
7.28128e-11
7.28129e-11
7.2813e-11
7.28131e-11
7.28132e-11
7.28133e-11
7.28134e-11
7.28135e-11
7.28136e-11
7.28138e-11
7.28138e-11
7.2814e-11
7.2814e-11
7.28141e-11
7.28143e-11
7.28143e-11
7.28144e-11
7.28145e-11
7.28146e-11
7.28147e-11
7.28148e-11
7.2815e-11
7.2815e-11
7.28151e-11
7.28152e-11
7.28153e-11
7.28155e-11
7.28155e-11
7.28157e-11
7.28158e-11
7.28158e-11
7.28159e-11
7.28161e-11
7.28162e-11
7.28163e-11
7.28164e-11
7.28165e-11
7.28166e-11
7.28167e-11
7.28168e-11
7.28168e-11
7.2817e-11
7.28171e-11
7.28172e-11
7.28173e-11
7.28174e-11
7.28175e-11
7.28176e-11
7.28177e-11
7.28178e-11
7.28179e-11
7.2818e-11
7.28181e-11
7.28182e-11
7.28183e-11
7.28184e-11
7.28185e-11
7.28186e-11
7.28187e-11
7.28189e-11
7.28189e-11
7.28191e-11
7.28192e-11
7.28193e-11
7.28194e-11
7.28195e-11
7.28196e-11
7.28197e-11
7.28198e-11
7.28199e-11
7.282e-11
7.28201e-11
7.28203e-11
7.28204e-11
7.28205e-11
7.28206e-11
7.28207e-11
7.28208e-11
7.28209e-11
7.2821e-11
7.28211e-11
7.28212e-11
7.28213e-11
7.28214e-11
7.28215e-11
7.28217e-11
7.28218e-11
7.28219e-11
7.2822e-11
7.2822e-11
7.28222e-11
7.28223e-11
7.28224e-11
7.28225e-11
7.28226e-11
7.28227e-11
7.28228e-11
7.28229e-11
7.2823e-11
7.28232e-11
7.28233e-11
7.28234e-11
7.28235e-11
7.28236e-11
7.28237e-11
7.28238e-11
7.2824e-11
7.28241e-11
7.28242e-11
7.28243e-11
7.28244e-11
7.28245e-11
7.28246e-11
7.28247e-11
7.28248e-11
7.28249e-11
7.28251e-11
7.28252e-11
7.28252e-11
7.28254e-11
7.28255e-11
7.28256e-11
7.28257e-11
7.28258e-11
7.28259e-11
7.2826e-11
7.28261e-11
7.28263e-11
7.28264e-11
7.28265e-11
7.28266e-11
7.28267e-11
7.28268e-11
7.28269e-11
7.2827e-11
7.28271e-11
7.28272e-11
7.28274e-11
7.28275e-11
7.28276e-11
7.28277e-11
7.28278e-11
7.2828e-11
7.28281e-11
7.28282e-11
7.28283e-11
7.28284e-11
7.28285e-11
7.28286e-11
7.28287e-11
7.28288e-11
7.28289e-11
7.2829e-11
7.28292e-11
7.28293e-11
7.28294e-11
7.28295e-11
7.28296e-11
7.28297e-11
7.28298e-11
7.28299e-11
7.28301e-11
7.28302e-11
7.28303e-11
7.28304e-11
7.28305e-11
7.28306e-11
7.28308e-11
7.28309e-11
7.2831e-11
7.28311e-11
7.28312e-11
7.28313e-11
7.28314e-11
7.28315e-11
7.28317e-11
7.28318e-11
7.28319e-11
7.2832e-11
7.28321e-11
7.28322e-11
7.28324e-11
7.28324e-11
7.28326e-11
7.28327e-11
7.28328e-11
7.28329e-11
7.28331e-11
7.28332e-11
7.28333e-11
7.28334e-11
7.28335e-11
7.28336e-11
7.28338e-11
7.28339e-11
7.2834e-11
7.28341e-11
7.28342e-11
7.28343e-11
7.28344e-11
7.28345e-11
7.28346e-11
7.28348e-11
7.28349e-11
7.2835e-11
7.28351e-11
7.28352e-11
7.28354e-11
7.28355e-11
7.28356e-11
7.28357e-11
7.28358e-11
7.28359e-11
7.28361e-11
7.28362e-11
7.28363e-11
7.28364e-11
7.28365e-11
7.28366e-11
7.28367e-11
7.28368e-11
7.28369e-11
7.28371e-11
7.28372e-11
7.28373e-11
7.28374e-11
7.28375e-11
7.28376e-11
7.28377e-11
7.28379e-11
7.2838e-11
7.28381e-11
7.28382e-11
7.28384e-11
7.28385e-11
7.28386e-11
7.28387e-11
7.28388e-11
7.28389e-11
7.28391e-11
7.28392e-11
7.28393e-11
7.28394e-11
7.28395e-11
7.28397e-11
7.28398e-11
7.28399e-11
7.284e-11
7.28401e-11
7.28402e-11
7.28404e-11
7.28405e-11
7.28406e-11
7.28407e-11
7.28408e-11
7.28409e-11
7.28411e-11
7.28412e-11
7.28413e-11
7.28414e-11
7.28415e-11
7.28416e-11
7.28418e-11
7.28419e-11
7.28421e-11
7.28421e-11
7.28423e-11
7.28424e-11
7.28425e-11
7.28426e-11
7.28427e-11
7.28428e-11
7.28429e-11
7.28431e-11
7.28432e-11
7.28433e-11
7.28434e-11
7.28436e-11
7.28437e-11
7.28438e-11
7.28439e-11
7.2844e-11
7.28441e-11
7.28443e-11
7.28444e-11
7.28445e-11
7.28446e-11
7.28447e-11
7.28449e-11
7.2845e-11
7.28451e-11
7.28452e-11
7.28454e-11
7.28455e-11
7.28456e-11
7.28457e-11
7.28458e-11
7.2846e-11
7.28461e-11
7.28462e-11
7.28463e-11
7.28464e-11
7.28465e-11
7.28467e-11
7.28468e-11
7.28469e-11
7.2847e-11
7.28471e-11
7.28472e-11
7.28473e-11
7.28474e-11
7.28476e-11
7.28477e-11
7.28478e-11
7.2848e-11
7.28481e-11
7.28482e-11
7.28483e-11
7.28485e-11
7.28486e-11
7.28487e-11
7.28488e-11
7.2849e-11
7.28491e-11
7.28492e-11
7.28493e-11
7.28494e-11
7.28496e-11
7.28497e-11
7.28499e-11
7.285e-11
7.28501e-11
7.28502e-11
7.28503e-11
7.28505e-11
7.28506e-11
7.28507e-11
7.28508e-11
7.28509e-11
7.2851e-11
7.28511e-11
7.28513e-11
7.28514e-11
7.28515e-11
7.28516e-11
7.28518e-11
7.28519e-11
7.2852e-11
7.28521e-11
7.28522e-11
7.28524e-11
7.28525e-11
7.28526e-11
7.28528e-11
7.28529e-11
7.2853e-11
7.28531e-11
7.28533e-11
7.28534e-11
7.28535e-11
7.28536e-11
7.28537e-11
7.28539e-11
7.2854e-11
7.28541e-11
7.28542e-11
7.28544e-11
7.28545e-11
7.28546e-11
7.28547e-11
7.28549e-11
7.2855e-11
7.28551e-11
7.28552e-11
7.28553e-11
7.28555e-11
7.28556e-11
7.28557e-11
7.28558e-11
7.2856e-11
7.28561e-11
7.28562e-11
7.28564e-11
7.28565e-11
7.28566e-11
7.28567e-11
7.28569e-11
7.2857e-11
7.28571e-11
7.28573e-11
7.28574e-11
7.28575e-11
7.28576e-11
7.28577e-11
7.28579e-11
7.2858e-11
7.28581e-11
7.28582e-11
7.28583e-11
7.28585e-11
7.28586e-11
7.28588e-11
7.28589e-11
7.2859e-11
7.28591e-11
7.28593e-11
7.28594e-11
7.28595e-11
7.28596e-11
7.28598e-11
7.28599e-11
7.286e-11
7.28601e-11
7.28603e-11
7.28604e-11
7.28606e-11
7.28607e-11
7.28608e-11
7.28609e-11
7.2861e-11
7.28611e-11
7.28613e-11
7.28614e-11
7.28616e-11
7.28617e-11
7.28618e-11
7.28619e-11
7.28621e-11
7.28622e-11
7.28623e-11
7.28625e-11
7.28626e-11
7.28627e-11
7.28628e-11
7.2863e-11
7.28631e-11
7.28632e-11
7.28633e-11
7.28635e-11
7.28636e-11
7.28638e-11
7.28639e-11
7.2864e-11
7.28641e-11
7.28643e-11
7.28644e-11
7.28646e-11
7.28647e-11
7.28648e-11
7.28649e-11
7.28651e-11
7.28652e-11
7.28653e-11
7.28654e-11
7.28656e-11
7.28657e-11
7.28659e-11
7.2866e-11
7.28661e-11
7.28662e-11
7.28664e-11
7.28665e-11
7.28666e-11
7.28667e-11
7.28669e-11
7.2867e-11
7.28672e-11
7.28673e-11
7.28674e-11
7.28676e-11
7.28677e-11
7.28678e-11
7.2868e-11
7.28681e-11
7.28682e-11
7.28684e-11
7.28685e-11
7.28686e-11
7.28688e-11
7.28689e-11
7.2869e-11
7.28692e-11
7.28693e-11
7.28694e-11
7.28695e-11
7.28697e-11
7.28699e-11
7.287e-11
7.28701e-11
7.28702e-11
7.28703e-11
7.28705e-11
7.28706e-11
7.28707e-11
7.28709e-11
7.2871e-11
7.28711e-11
7.28713e-11
7.28714e-11
7.28716e-11
7.28717e-11
7.28718e-11
7.2872e-11
7.28721e-11
7.28723e-11
7.28724e-11
7.28725e-11
7.28726e-11
7.28728e-11
7.28729e-11
7.28731e-11
7.28732e-11
7.28733e-11
)
;

boundaryField
{
    fixedWall
    {
        type            zeroGradient;
    }
    outlet
    {
        type            inletOutlet;
        inletValue      uniform 0;
        value           uniform 7.28733e-11;
    }
    defaultFaces
    {
        type            empty;
    }
}


// ************************************************************************* //
