/*--------------------------------*- C++ -*----------------------------------*\
| =========                 |                                                 |
| \\      /  F ield         | OpenFOAM: The Open Source CFD Toolbox           |
|  \\    /   O peration     | Version:  2406                                  |
|   \\  /    A nd           | Website:  www.openfoam.com                      |
|    \\/     M anipulation  |                                                 |
\*---------------------------------------------------------------------------*/
FoamFile
{
    version     2.0;
    format      ascii;
    arch        "LSB;label=32;scalar=64";
    class       volVectorField;
    location    "1.8";
    object      U;
}
// * * * * * * * * * * * * * * * * * * * * * * * * * * * * * * * * * * * * * //

dimensions      [0 1 -1 0 0 0 0];

internalField   nonuniform List<vector> 
1000
(
(-2.33788e-05 0 0)
(-8.99584e-05 0 0)
(-0.000196081 0 0)
(-0.000325014 0 0)
(-0.000467601 0 0)
(-0.000619233 0 0)
(-0.000777046 0 0)
(-0.00093885 0 0)
(-0.00110295 0 0)
(-0.00126802 0 0)
(-0.00143303 0 0)
(-0.00159712 0 0)
(-0.00175962 0 0)
(-0.00191994 0 0)
(-0.00207759 0 0)
(-0.00223219 0 0)
(-0.00238337 0 0)
(-0.00253087 0 0)
(-0.00267443 0 0)
(-0.00281388 0 0)
(-0.00294905 0 0)
(-0.00307981 0 0)
(-0.00320608 0 0)
(-0.00332778 0 0)
(-0.00344487 0 0)
(-0.00355734 0 0)
(-0.00366518 0 0)
(-0.00376842 0 0)
(-0.00386708 0 0)
(-0.00396123 0 0)
(-0.00405092 0 0)
(-0.00413625 0 0)
(-0.00421729 0 0)
(-0.00429414 0 0)
(-0.00436693 0 0)
(-0.00443576 0 0)
(-0.00450075 0 0)
(-0.00456204 0 0)
(-0.00461977 0 0)
(-0.00467407 0 0)
(-0.00472509 0 0)
(-0.00477295 0 0)
(-0.00481761 0 0)
(-0.00485931 0 0)
(-0.00489851 0 0)
(-0.00493527 0 0)
(-0.00496965 0 0)
(-0.00500174 0 0)
(-0.00503167 0 0)
(-0.00505958 0 0)
(-0.0050856 0 0)
(-0.00510986 0 0)
(-0.00513249 0 0)
(-0.0051536 0 0)
(-0.0051733 0 0)
(-0.00519172 0 0)
(-0.00520892 0 0)
(-0.00522505 0 0)
(-0.00524017 0 0)
(-0.00525439 0 0)
(-0.00526778 0 0)
(-0.0052804 0 0)
(-0.00529237 0 0)
(-0.00530371 0 0)
(-0.00531451 0 0)
(-0.00532482 0 0)
(-0.0053347 0 0)
(-0.00534419 0 0)
(-0.00535335 0 0)
(-0.00536222 0 0)
(-0.0053708 0 0)
(-0.0053792 0 0)
(-0.00538734 0 0)
(-0.00539539 0 0)
(-0.00540322 0 0)
(-0.00541102 0 0)
(-0.0054187 0 0)
(-0.00542619 0 0)
(-0.00543376 0 0)
(-0.00544119 0 0)
(-0.00544861 0 0)
(-0.00545599 0 0)
(-0.00546335 0 0)
(-0.0054707 0 0)
(-0.00547804 0 0)
(-0.00548537 0 0)
(-0.00549271 0 0)
(-0.00550005 0 0)
(-0.00550739 0 0)
(-0.00551475 0 0)
(-0.00552212 0 0)
(-0.00552949 0 0)
(-0.00553688 0 0)
(-0.00554429 0 0)
(-0.0055517 0 0)
(-0.00555913 0 0)
(-0.00556657 0 0)
(-0.00557402 0 0)
(-0.00558148 0 0)
(-0.00558894 0 0)
(-0.00559642 0 0)
(-0.00560391 0 0)
(-0.0056114 0 0)
(-0.0056189 0 0)
(-0.0056264 0 0)
(-0.00563391 0 0)
(-0.00564142 0 0)
(-0.00564894 0 0)
(-0.00565645 0 0)
(-0.00566397 0 0)
(-0.00567148 0 0)
(-0.005679 0 0)
(-0.00568652 0 0)
(-0.00569403 0 0)
(-0.00570154 0 0)
(-0.00570906 0 0)
(-0.00571657 0 0)
(-0.00572408 0 0)
(-0.00573159 0 0)
(-0.00573909 0 0)
(-0.0057466 0 0)
(-0.00575411 0 0)
(-0.00576161 0 0)
(-0.00576912 0 0)
(-0.0057766 0 0)
(-0.00578419 0 0)
(-0.00579151 0 0)
(-0.00579915 0 0)
(-0.00580694 0 0)
(-0.00581374 0 0)
(-0.00582148 0 0)
(-0.0058302 0 0)
(-0.00583618 0 0)
(-0.0058442 0 0)
(-0.00585228 0 0)
(-0.00585893 0 0)
(-0.0058671 0 0)
(-0.00587442 0 0)
(-0.00588205 0 0)
(-0.00588963 0 0)
(-0.0058972 0 0)
(-0.00590482 0 0)
(-0.00591235 0 0)
(-0.00592004 0 0)
(-0.00592767 0 0)
(-0.00593514 0 0)
(-0.00594288 0 0)
(-0.00595051 0 0)
(-0.00595812 0 0)
(-0.00596578 0 0)
(-0.00597341 0 0)
(-0.00598107 0 0)
(-0.00598871 0 0)
(-0.00599637 0 0)
(-0.00600402 0 0)
(-0.00601167 0 0)
(-0.00601933 0 0)
(-0.00602687 0 0)
(-0.00603486 0 0)
(-0.0060419 0 0)
(-0.00604959 0 0)
(-0.00605875 0 0)
(-0.00606448 0 0)
(-0.00607268 0 0)
(-0.00608096 0 0)
(-0.00608749 0 0)
(-0.00609584 0 0)
(-0.00610315 0 0)
(-0.00611081 0 0)
(-0.00611839 0 0)
(-0.00612597 0 0)
(-0.00613354 0 0)
(-0.0061411 0 0)
(-0.00614866 0 0)
(-0.00615622 0 0)
(-0.00616378 0 0)
(-0.00617133 0 0)
(-0.00617889 0 0)
(-0.00618644 0 0)
(-0.006194 0 0)
(-0.00620156 0 0)
(-0.00620912 0 0)
(-0.00621669 0 0)
(-0.00622427 0 0)
(-0.00623186 0 0)
(-0.00623942 0 0)
(-0.00624695 0 0)
(-0.00625462 0 0)
(-0.00626224 0 0)
(-0.00626981 0 0)
(-0.00627745 0 0)
(-0.00628506 0 0)
(-0.00629269 0 0)
(-0.00630032 0 0)
(-0.00630795 0 0)
(-0.00631559 0 0)
(-0.00632323 0 0)
(-0.00633086 0 0)
(-0.00633844 0 0)
(-0.00634633 0 0)
(-0.00635337 0 0)
(-0.00636162 0 0)
(-0.0063693 0 0)
(-0.00637622 0 0)
(-0.00638419 0 0)
(-0.006392 0 0)
(-0.00639889 0 0)
(-0.0064065 0 0)
(-0.00641602 0 0)
(-0.00642113 0 0)
(-0.00642886 0 0)
(-0.00643831 0 0)
(-0.00644373 0 0)
(-0.006452 0 0)
(-0.00646003 0 0)
(-0.00646644 0 0)
(-0.00647518 0 0)
(-0.00648191 0 0)
(-0.00648881 0 0)
(-0.00649704 0 0)
(-0.00650461 0 0)
(-0.00651107 0 0)
(-0.00651983 0 0)
(-0.00652774 0 0)
(-0.00653305 0 0)
(-0.00654268 0 0)
(-0.00654992 0 0)
(-0.00655645 0 0)
(-0.00656548 0 0)
(-0.00657101 0 0)
(-0.00658092 0 0)
(-0.00658732 0 0)
(-0.00659457 0 0)
(-0.00660327 0 0)
(-0.00660861 0 0)
(-0.00661917 0 0)
(-0.00662397 0 0)
(-0.00663169 0 0)
(-0.00663999 0 0)
(-0.00664687 0 0)
(-0.00665451 0 0)
(-0.00665999 0 0)
(-0.00666882 0 0)
(-0.00667628 0 0)
(-0.00668275 0 0)
(-0.00669069 0 0)
(-0.0066979 0 0)
(-0.00670518 0 0)
(-0.00671297 0 0)
(-0.00671983 0 0)
(-0.00672826 0 0)
(-0.00673495 0 0)
(-0.00674143 0 0)
(-0.00674942 0 0)
(-0.00675569 0 0)
(-0.00676232 0 0)
(-0.00676851 0 0)
(-0.00677435 0 0)
(-0.00677991 0 0)
(-0.00678518 0 0)
(-0.00679021 0 0)
(-0.00679509 0 0)
(-0.00679982 0 0)
(-0.0068046 0 0)
(-0.00680925 0 0)
(-0.00681401 0 0)
(-0.00681868 0 0)
(-0.00682336 0 0)
(-0.00682707 0 0)
(-0.00682973 0 0)
(-0.00682953 0 0)
(-0.00682443 0 0)
(-0.00680999 0 0)
(-0.00676845 0 0)
(-0.00672344 0 0)
(-0.00679641 0 0)
(-0.00663117 0 0)
(-0.00669489 0 0)
(0.000599807 0 0)
(0.0339608 0 0)
(0.0776202 0 0)
(0.101428 0 0)
(0.110863 0 0)
(0.114633 0 0)
(0.116045 0 0)
(0.116523 0 0)
(0.116705 0 0)
(0.116766 0 0)
(0.116757 0 0)
(0.11678 0 0)
(0.116854 0 0)
(0.116749 0 0)
(0.1168 0 0)
(0.116706 0 0)
(0.116756 0 0)
(0.116948 0 0)
(0.116534 0 0)
(0.116785 0 0)
(0.116903 0 0)
(0.116519 0 0)
(0.116836 0 0)
(0.116696 0 0)
(0.116687 0 0)
(0.116852 0 0)
(0.116441 0 0)
(0.116757 0 0)
(0.116789 0 0)
(0.116679 0 0)
(0.116573 0 0)
(0.116685 0 0)
(0.116643 0 0)
(0.116698 0 0)
(0.11656 0 0)
(0.11663 0 0)
(0.116729 0 0)
(0.116497 0 0)
(0.116678 0 0)
(0.116522 0 0)
(0.116668 0 0)
(0.116563 0 0)
(0.116535 0 0)
(0.116692 0 0)
(0.116425 0 0)
(0.116668 0 0)
(0.11644 0 0)
(0.116569 0 0)
(0.116647 0 0)
(0.116388 0 0)
(0.116633 0 0)
(0.116404 0 0)
(0.116535 0 0)
(0.1166 0 0)
(0.11639 0 0)
(0.116516 0 0)
(0.11652 0 0)
(0.116362 0 0)
(0.1165 0 0)
(0.116621 0 0)
(0.116227 0 0)
(0.116511 0 0)
(0.116537 0 0)
(0.116334 0 0)
(0.116455 0 0)
(0.116445 0 0)
(0.116295 0 0)
(0.116483 0 0)
(0.116515 0 0)
(0.116152 0 0)
(0.116502 0 0)
(0.116442 0 0)
(0.116263 0 0)
(0.116423 0 0)
(0.116297 0 0)
(0.116387 0 0)
(0.116371 0 0)
(0.116288 0 0)
(0.116323 0 0)
(0.116389 0 0)
(0.116206 0 0)
(0.116342 0 0)
(0.116407 0 0)
(0.116155 0 0)
(0.116396 0 0)
(0.116183 0 0)
(0.116278 0 0)
(0.116415 0 0)
(0.116075 0 0)
(0.116357 0 0)
(0.116206 0 0)
(0.116251 0 0)
(0.116312 0 0)
(0.116123 0 0)
(0.116245 0 0)
(0.11626 0 0)
(0.11616 0 0)
(0.11618 0 0)
(0.116327 0 0)
(0.116032 0 0)
(0.116207 0 0)
(0.116329 0 0)
(0.115962 0 0)
(0.116264 0 0)
(0.116143 0 0)
(0.116177 0 0)
(0.116154 0 0)
(0.116027 0 0)
(0.116315 0 0)
(0.115928 0 0)
(0.116177 0 0)
(0.116222 0 0)
(0.115966 0 0)
(0.116202 0 0)
(0.116001 0 0)
(0.116087 0 0)
(0.116241 0 0)
(0.115862 0 0)
(0.116128 0 0)
(0.116165 0 0)
(0.115946 0 0)
(0.116107 0 0)
(0.11595 0 0)
(0.116133 0 0)
(0.115999 0 0)
(0.115982 0 0)
(0.116124 0 0)
(0.115909 0 0)
(0.116049 0 0)
(0.115962 0 0)
(0.116053 0 0)
(0.115886 0 0)
(0.116021 0 0)
(0.11606 0 0)
(0.115892 0 0)
(0.11591 0 0)
(0.116011 0 0)
(0.116048 0 0)
(0.115736 0 0)
(0.116056 0 0)
(0.116034 0 0)
(0.115698 0 0)
(0.116052 0 0)
(0.115965 0 0)
(0.115811 0 0)
(0.115917 0 0)
(0.115939 0 0)
(0.115798 0 0)
(0.115956 0 0)
(0.115857 0 0)
(0.115895 0 0)
(0.115853 0 0)
(0.115811 0 0)
(0.115966 0 0)
(0.115739 0 0)
(0.115885 0 0)
(0.115807 0 0)
(0.115893 0 0)
(0.115731 0 0)
(0.115828 0 0)
(0.115965 0 0)
(0.115611 0 0)
(0.115844 0 0)
(0.11594 0 0)
(0.115574 0 0)
(0.115868 0 0)
(0.115875 0 0)
(0.115647 0 0)
(0.115819 0 0)
(0.11575 0 0)
(0.11572 0 0)
(0.115838 0 0)
(0.115631 0 0)
(0.115769 0 0)
(0.115833 0 0)
(0.115598 0 0)
(0.115776 0 0)
(0.115687 0 0)
(0.115737 0 0)
(0.115697 0 0)
(0.115675 0 0)
(0.115752 0 0)
(0.115605 0 0)
(0.115754 0 0)
(0.115578 0 0)
(0.115712 0 0)
(0.115754 0 0)
(0.115546 0 0)
(0.115688 0 0)
(0.115656 0 0)
(0.115609 0 0)
(0.115667 0 0)
(0.115645 0 0)
(0.115594 0 0)
(0.11563 0 0)
(0.115618 0 0)
(0.115605 0 0)
(0.115589 0 0)
(0.115637 0 0)
(0.115504 0 0)
(0.115669 0 0)
(0.115595 0 0)
(0.115535 0 0)
(0.115545 0 0)
(0.115567 0 0)
(0.115695 0 0)
(0.115363 0 0)
(0.115617 0 0)
(0.115631 0 0)
(0.115442 0 0)
(0.115549 0 0)
(0.115558 0 0)
(0.115445 0 0)
(0.115629 0 0)
(0.115475 0 0)
(0.115424 0 0)
(0.115671 0 0)
(0.115306 0 0)
(0.115552 0 0)
(0.115582 0 0)
(0.115384 0 0)
(0.115492 0 0)
(0.115503 0 0)
(0.115382 0 0)
(0.115532 0 0)
(0.115498 0 0)
(0.115365 0 0)
(0.115479 0 0)
(0.115429 0 0)
(0.115466 0 0)
(0.115341 0 0)
(0.115506 0 0)
(0.115441 0 0)
(0.11538 0 0)
(0.11535 0 0)
(0.11545 0 0)
(0.115499 0 0)
(0.115208 0 0)
(0.11549 0 0)
(0.115476 0 0)
(0.115172 0 0)
(0.115495 0 0)
(0.115462 0 0)
(0.115131 0 0)
(0.115459 0 0)
(0.115454 0 0)
(0.115312 0 0)
(0.115291 0 0)
(0.115341 0 0)
(0.115368 0 0)
(0.115297 0 0)
(0.115321 0 0)
(0.1154 0 0)
(0.11522 0 0)
(0.115374 0 0)
(0.115247 0 0)
(0.11534 0 0)
(0.115329 0 0)
(0.115257 0 0)
(0.115242 0 0)
(0.115287 0 0)
(0.115415 0 0)
(0.115096 0 0)
(0.115326 0 0)
(0.115351 0 0)
(0.115137 0 0)
(0.115332 0 0)
(0.115156 0 0)
(0.1153 0 0)
(0.115319 0 0)
(0.115142 0 0)
(0.115169 0 0)
(0.115328 0 0)
(0.115257 0 0)
(0.115122 0 0)
(0.115234 0 0)
(0.115217 0 0)
(0.115221 0 0)
(0.115192 0 0)
(0.115121 0 0)
(0.115276 0 0)
(0.115197 0 0)
(0.115117 0 0)
(0.115195 0 0)
(0.115158 0 0)
(0.115257 0 0)
(0.115028 0 0)
(0.115204 0 0)
(0.115244 0 0)
(0.115027 0 0)
(0.115218 0 0)
(0.115051 0 0)
(0.115184 0 0)
(0.115205 0 0)
(0.115033 0 0)
(0.115168 0 0)
(0.115074 0 0)
(0.115166 0 0)
(0.11503 0 0)
(0.115126 0 0)
(0.115234 0 0)
(0.114906 0 0)
(0.11516 0 0)
(0.115165 0 0)
(0.115012 0 0)
(0.11501 0 0)
(0.11512 0 0)
(0.115206 0 0)
(0.114877 0 0)
(0.115105 0 0)
(0.115166 0 0)
(0.114929 0 0)
(0.115115 0 0)
(0.11498 0 0)
(0.115093 0 0)
(0.115081 0 0)
(0.114956 0 0)
(0.115059 0 0)
(0.114983 0 0)
(0.115059 0 0)
(0.115063 0 0)
(0.114869 0 0)
(0.1151 0 0)
(0.11507 0 0)
(0.114898 0 0)
(0.115033 0 0)
(0.114909 0 0)
(0.115075 0 0)
(0.115047 0 0)
(0.114797 0 0)
(0.115097 0 0)
(0.114955 0 0)
(0.114961 0 0)
(0.114956 0 0)
(0.114971 0 0)
(0.114992 0 0)
(0.114879 0 0)
(0.114986 0 0)
(0.114915 0 0)
(0.114981 0 0)
(0.114903 0 0)
(0.114924 0 0)
(0.114976 0 0)
(0.114875 0 0)
(0.114926 0 0)
(0.114958 0 0)
(0.114851 0 0)
(0.114962 0 0)
(0.114824 0 0)
(0.114936 0 0)
(0.114998 0 0)
(0.114724 0 0)
(0.114996 0 0)
(0.114857 0 0)
(0.114882 0 0)
(0.114915 0 0)
(0.114824 0 0)
(0.114845 0 0)
(0.114924 0 0)
(0.11484 0 0)
(0.114869 0 0)
(0.114888 0 0)
(0.114787 0 0)
(0.114871 0 0)
(0.114849 0 0)
(0.114853 0 0)
(0.114831 0 0)
(0.114774 0 0)
(0.114879 0 0)
(0.114907 0 0)
(0.114647 0 0)
(0.114928 0 0)
(0.114878 0 0)
(0.114628 0 0)
(0.114936 0 0)
(0.114835 0 0)
(0.114724 0 0)
(0.114835 0 0)
(0.114734 0 0)
(0.114851 0 0)
(0.114831 0 0)
(0.114649 0 0)
(0.114876 0 0)
(0.114825 0 0)
(0.114614 0 0)
(0.114885 0 0)
(0.114775 0 0)
(0.114729 0 0)
(0.114709 0 0)
(0.114792 0 0)
(0.114837 0 0)
(0.114653 0 0)
(0.114778 0 0)
(0.114729 0 0)
(0.11475 0 0)
(0.114734 0 0)
(0.1147 0 0)
(0.114782 0 0)
(0.114718 0 0)
(0.114707 0 0)
(0.114713 0 0)
(0.114719 0 0)
(0.114741 0 0)
(0.114689 0 0)
(0.114679 0 0)
(0.114755 0 0)
(0.114628 0 0)
(0.114716 0 0)
(0.114799 0 0)
(0.11453 0 0)
(0.114781 0 0)
(0.114655 0 0)
(0.114696 0 0)
(0.114749 0 0)
(0.114488 0 0)
(0.114809 0 0)
(0.114675 0 0)
(0.114623 0 0)
(0.114621 0 0)
(0.114686 0 0)
(0.114758 0 0)
(0.114492 0 0)
(0.114735 0 0)
(0.114654 0 0)
(0.114621 0 0)
(0.114616 0 0)
(0.114663 0 0)
(0.114669 0 0)
(0.114592 0 0)
(0.114649 0 0)
(0.114601 0 0)
(0.114627 0 0)
(0.114602 0 0)
(0.11466 0 0)
(0.114592 0 0)
(0.114619 0 0)
(0.114582 0 0)
(0.1146 0 0)
(0.114692 0 0)
(0.114473 0 0)
(0.114634 0 0)
(0.114687 0 0)
(0.11447 0 0)
(0.114622 0 0)
(0.114637 0 0)
(0.114528 0 0)
(0.114592 0 0)
(0.114594 0 0)
(0.114493 0 0)
(0.114643 0 0)
(0.114612 0 0)
(0.114496 0 0)
(0.114561 0 0)
(0.114601 0 0)
(0.114473 0 0)
(0.114609 0 0)
(0.114635 0 0)
(0.114435 0 0)
(0.114584 0 0)
(0.114523 0 0)
(0.114583 0 0)
(0.114465 0 0)
(0.11457 0 0)
(0.114608 0 0)
(0.114434 0 0)
(0.114572 0 0)
(0.114458 0 0)
(0.114595 0 0)
(0.114554 0 0)
(0.114438 0 0)
(0.11456 0 0)
(0.114403 0 0)
(0.114582 0 0)
(0.114624 0 0)
(0.114353 0 0)
(0.11453 0 0)
(0.114592 0 0)
(0.114378 0 0)
(0.114562 0 0)
(0.114425 0 0)
(0.114541 0 0)
(0.114484 0 0)
(0.114508 0 0)
(0.114468 0 0)
(0.114449 0 0)
(0.114468 0 0)
(0.114515 0 0)
(0.114499 0 0)
(0.114416 0 0)
(0.114422 0 0)
(0.114528 0 0)
(0.114519 0 0)
(0.114381 0 0)
(0.114418 0 0)
(0.114534 0 0)
(0.114487 0 0)
(0.114366 0 0)
(0.114482 0 0)
(0.114455 0 0)
(0.114441 0 0)
(0.114445 0 0)
(0.114367 0 0)
(0.11453 0 0)
(0.114489 0 0)
(0.114248 0 0)
(0.11456 0 0)
(0.114445 0 0)
(0.11437 0 0)
(0.114395 0 0)
(0.114486 0 0)
(0.114398 0 0)
(0.114437 0 0)
(0.114448 0 0)
(0.114357 0 0)
(0.114366 0 0)
(0.114472 0 0)
(0.114472 0 0)
(0.114314 0 0)
(0.114358 0 0)
(0.114501 0 0)
(0.114421 0 0)
(0.114317 0 0)
(0.114431 0 0)
(0.114387 0 0)
(0.114405 0 0)
(0.114317 0 0)
(0.114458 0 0)
(0.114448 0 0)
(0.114206 0 0)
(0.114522 0 0)
(0.11439 0 0)
(0.114318 0 0)
(0.114333 0 0)
(0.114435 0 0)
(0.114436 0 0)
(0.114278 0 0)
(0.11432 0 0)
(0.114392 0 0)
(0.114462 0 0)
(0.114367 0 0)
(0.114339 0 0)
(0.114227 0 0)
(0.11448 0 0)
(0.114408 0 0)
(0.11418 0 0)
(0.114472 0 0)
(0.114364 0 0)
(0.114284 0 0)
(0.114379 0 0)
(0.11432 0 0)
(0.114407 0 0)
(0.114226 0 0)
(0.114395 0 0)
(0.114421 0 0)
(0.114226 0 0)
(0.114392 0 0)
(0.114255 0 0)
(0.114368 0 0)
(0.114445 0 0)
(0.114152 0 0)
(0.11438 0 0)
(0.114421 0 0)
(0.114173 0 0)
(0.114407 0 0)
(0.114291 0 0)
(0.114341 0 0)
(0.114381 0 0)
(0.114138 0 0)
(0.114424 0 0)
(0.114352 0 0)
(0.114244 0 0)
(0.114318 0 0)
(0.114317 0 0)
(0.114302 0 0)
(0.114282 0 0)
(0.114333 0 0)
(0.114322 0 0)
(0.114194 0 0)
(0.114394 0 0)
(0.114348 0 0)
(0.114128 0 0)
(0.114404 0 0)
(0.114331 0 0)
(0.114208 0 0)
(0.114318 0 0)
(0.114292 0 0)
(0.1143 0 0)
(0.114215 0 0)
(0.114343 0 0)
(0.114346 0 0)
(0.114124 0 0)
(0.114404 0 0)
(0.114281 0 0)
(0.114234 0 0)
(0.114243 0 0)
(0.114291 0 0)
(0.114371 0 0)
(0.114134 0 0)
(0.114357 0 0)
(0.11423 0 0)
(0.114275 0 0)
(0.114345 0 0)
(0.114177 0 0)
(0.114297 0 0)
(0.114185 0 0)
(0.114339 0 0)
(0.11432 0 0)
(0.114172 0 0)
(0.114282 0 0)
(0.114191 0 0)
(0.114349 0 0)
(0.114302 0 0)
(0.114084 0 0)
(0.114363 0 0)
(0.114295 0 0)
(0.1141 0 0)
(0.114379 0 0)
(0.114225 0 0)
(0.11421 0 0)
(0.114359 0 0)
(0.114084 0 0)
(0.114304 0 0)
(0.114332 0 0)
(0.114122 0 0)
(0.114306 0 0)
(0.114192 0 0)
(0.114293 0 0)
(0.114273 0 0)
(0.114159 0 0)
(0.114252 0 0)
(0.114269 0 0)
(0.114161 0 0)
(0.114284 0 0)
(0.114296 0 0)
(0.11416 0 0)
(0.114189 0 0)
(0.1143 0 0)
(0.114271 0 0)
(0.114101 0 0)
(0.11435 0 0)
(0.114152 0 0)
(0.114232 0 0)
(0.114302 0 0)
(0.114127 0 0)
(0.114291 0 0)
(0.11415 0 0)
(0.114259 0 0)
(0.114289 0 0)
(0.114121 0 0)
(0.114277 0 0)
(0.114202 0 0)
(0.114232 0 0)
(0.114228 0 0)
(0.114108 0 0)
(0.11434 0 0)
(0.114199 0 0)
(0.114176 0 0)
(0.114317 0 0)
(0.114046 0 0)
(0.114304 0 0)
(0.11427 0 0)
(0.114125 0 0)
(0.114183 0 0)
(0.114295 0 0)
(0.114231 0 0)
(0.11414 0 0)
(0.114233 0 0)
(0.114186 0 0)
(0.114247 0 0)
(0.114223 0 0)
(0.114055 0 0)
(0.114318 0 0)
(0.11432 0 0)
(0.114073 0 0)
(0.114192 0 0)
(0.114316 0 0)
(0.114079 0 0)
(0.114274 0 0)
(0.114164 0 0)
(0.114232 0 0)
(0.114265 0 0)
(0.114037 0 0)
(0.11432 0 0)
(0.114248 0 0)
(0.114036 0 0)
(0.114329 0 0)
(0.114243 0 0)
(0.113986 0 0)
(0.114332 0 0)
(0.114309 0 0)
(0.114058 0 0)
(0.114218 0 0)
(0.114292 0 0)
(0.114097 0 0)
(0.114221 0 0)
(0.114216 0 0)
(0.114132 0 0)
(0.11426 0 0)
(0.114246 0 0)
(0.114076 0 0)
(0.114289 0 0)
(0.114142 0 0)
(0.114192 0 0)
(0.114293 0 0)
(0.114067 0 0)
(0.114267 0 0)
(0.11416 0 0)
(0.114225 0 0)
(0.114256 0 0)
(0.114029 0 0)
(0.114304 0 0)
(0.114246 0 0)
(0.114027 0 0)
(0.114335 0 0)
(0.114206 0 0)
(0.114112 0 0)
(0.114222 0 0)
(0.1142 0 0)
(0.114209 0 0)
(0.114169 0 0)
(0.114129 0 0)
(0.114264 0 0)
)
;

boundaryField
{
    fixedWall
    {
        type            fixedValue;
        value           uniform (0 0 0);
    }
    outlet
    {
        type            pressureInletOutletVelocity;
        value           uniform (0.114264 0 0);
    }
    defaultFaces
    {
        type            empty;
    }
}


// ************************************************************************* //
