/*--------------------------------*- C++ -*----------------------------------*\
| =========                 |                                                 |
| \\      /  F ield         | OpenFOAM: The Open Source CFD Toolbox           |
|  \\    /   O peration     | Version:  2406                                  |
|   \\  /    A nd           | Website:  www.openfoam.com                      |
|    \\/     M anipulation  |                                                 |
\*---------------------------------------------------------------------------*/
FoamFile
{
    version     2.0;
    format      ascii;
    arch        "LSB;label=32;scalar=64";
    class       volScalarField;
    location    "2.2";
    object      H2O;
}
// * * * * * * * * * * * * * * * * * * * * * * * * * * * * * * * * * * * * * //

dimensions      [0 0 0 0 0 0 0];

internalField   nonuniform List<scalar> 
1000
(
0.0580662
0.0580662
0.0580662
0.0580662
0.0580662
0.0580662
0.0580662
0.0580662
0.0580663
0.0580663
0.0580663
0.0580663
0.0580663
0.0580663
0.0580663
0.0580663
0.0580663
0.0580663
0.0580663
0.0580664
0.0580664
0.0580664
0.0580664
0.0580664
0.0580664
0.0580664
0.0580664
0.0580665
0.0580665
0.0580665
0.0580665
0.0580665
0.0580665
0.0580665
0.0580665
0.0580665
0.0580665
0.0580666
0.0580666
0.0580666
0.0580666
0.0580666
0.0580666
0.0580666
0.0580666
0.0580666
0.0580666
0.0580666
0.0580666
0.0580666
0.0580666
0.0580666
0.0580666
0.0580666
0.0580666
0.0580666
0.0580666
0.0580666
0.0580666
0.0580666
0.0580666
0.0580666
0.0580666
0.0580666
0.0580666
0.0580666
0.0580666
0.0580666
0.0580666
0.0580666
0.0580666
0.0580666
0.0580666
0.0580666
0.0580666
0.0580666
0.0580666
0.0580666
0.0580666
0.0580666
0.0580665
0.0580665
0.0580665
0.0580665
0.0580665
0.0580665
0.0580665
0.0580665
0.0580665
0.0580665
0.0580665
0.0580665
0.0580665
0.0580665
0.0580665
0.0580665
0.0580665
0.0580665
0.0580665
0.0580665
0.0580665
0.0580665
0.0580665
0.0580665
0.0580665
0.0580665
0.0580665
0.0580665
0.0580665
0.0580665
0.0580665
0.0580665
0.0580665
0.0580664
0.0580664
0.0580664
0.0580664
0.0580664
0.0580664
0.0580664
0.0580664
0.0580664
0.0580664
0.0580664
0.0580664
0.0580664
0.0580664
0.0580664
0.0580664
0.0580664
0.0580664
0.0580664
0.0580664
0.0580664
0.0580664
0.0580664
0.0580664
0.0580664
0.0580664
0.0580663
0.0580663
0.0580663
0.0580663
0.0580663
0.0580663
0.0580663
0.0580663
0.0580663
0.0580663
0.0580663
0.0580663
0.0580663
0.0580663
0.0580663
0.0580663
0.0580663
0.0580663
0.0580663
0.0580663
0.0580662
0.0580662
0.0580662
0.0580662
0.0580662
0.0580662
0.0580662
0.0580662
0.0580662
0.0580662
0.0580662
0.0580662
0.0580662
0.0580662
0.0580662
0.0580662
0.0580662
0.0580661
0.0580661
0.0580661
0.0580661
0.0580661
0.0580661
0.0580661
0.0580661
0.0580661
0.0580661
0.0580661
0.0580661
0.0580661
0.0580661
0.058066
0.058066
0.058066
0.058066
0.058066
0.058066
0.058066
0.058066
0.058066
0.058066
0.058066
0.058066
0.0580659
0.0580659
0.0580659
0.0580659
0.0580659
0.0580659
0.0580659
0.0580659
0.0580659
0.0580659
0.0580658
0.0580658
0.0580658
0.0580658
0.0580658
0.0580658
0.0580658
0.0580658
0.0580657
0.0580657
0.0580657
0.0580657
0.0580657
0.0580657
0.0580657
0.0580657
0.0580656
0.0580656
0.0580656
0.0580656
0.0580656
0.0580656
0.0580655
0.0580655
0.0580655
0.0580655
0.0580655
0.0580655
0.0580654
0.0580654
0.0580654
0.0580654
0.0580654
0.0580653
0.0580653
0.0580653
0.0580653
0.0580653
0.0580652
0.0580652
0.0580652
0.0580652
0.0580651
0.0580651
0.0580651
0.0580651
0.058065
0.058065
0.058065
0.0580649
0.0580649
0.0580649
0.0580649
0.0580648
0.0580648
0.0580648
0.0580647
0.0580647
0.0580646
0.0580646
0.0580646
0.0580645
0.0580645
0.0580644
0.0580644
0.0580643
0.0580643
0.0580642
0.0580642
0.0580641
0.0580641
0.058064
0.058064
0.0580639
0.0580638
0.0580638
0.0580637
0.0580636
0.0580635
0.0580635
0.0580634
0.0580633
0.0580632
0.0580631
0.058063
0.0580629
0.0580628
0.0580627
0.0580625
0.0580624
0.0580623
0.0580621
0.058062
0.0580618
0.0580617
0.0580615
0.0580613
0.0580611
0.0580609
0.0580606
0.0580604
0.0580601
0.0580598
0.0580595
0.0580591
0.0580587
0.0580583
0.0580578
0.0580573
0.0580568
0.0580561
0.0580554
0.0580546
0.0580537
0.0580526
0.0580514
0.0580499
0.0580482
0.0580462
0.0580437
0.0580405
0.0580366
0.0580316
0.0580248
0.0580153
0.058001
0.0579777
0.0579351
0.0578434
0.0576031
0.0568423
0.0540521
0.0414845
0.0201824
0.00977831
0.00477571
0.00234982
0.0011624
0.000577059
0.000287138
0.000143093
7.13813e-05
3.56329e-05
1.77963e-05
8.8913e-06
4.44343e-06
2.22108e-06
1.11042e-06
5.55232e-07
2.77669e-07
1.38883e-07
6.94904e-08
3.47828e-08
1.7425e-08
8.75504e-09
4.39912e-09
2.24446e-09
1.16527e-09
6.25475e-10
4.35069e-10
2.83363e-10
1.69416e-10
1.32771e-10
1.04803e-10
9.0008e-11
8.43084e-11
7.88739e-11
7.62746e-11
7.48133e-11
7.42235e-11
7.3495e-11
7.327e-11
7.30459e-11
7.29667e-11
7.29147e-11
7.28743e-11
7.28517e-11
7.28378e-11
7.28325e-11
7.28291e-11
7.2826e-11
7.2825e-11
7.28244e-11
7.2824e-11
7.28239e-11
7.28239e-11
7.28239e-11
7.2824e-11
7.28241e-11
7.28242e-11
7.28243e-11
7.28244e-11
7.28246e-11
7.28247e-11
7.28248e-11
7.28249e-11
7.2825e-11
7.28252e-11
7.28253e-11
7.28254e-11
7.28256e-11
7.28257e-11
7.28258e-11
7.28259e-11
7.28261e-11
7.28262e-11
7.28263e-11
7.28264e-11
7.28266e-11
7.28267e-11
7.28269e-11
7.2827e-11
7.28271e-11
7.28272e-11
7.28273e-11
7.28275e-11
7.28276e-11
7.28277e-11
7.28279e-11
7.2828e-11
7.28281e-11
7.28283e-11
7.28284e-11
7.28285e-11
7.28286e-11
7.28287e-11
7.28289e-11
7.2829e-11
7.28291e-11
7.28293e-11
7.28294e-11
7.28295e-11
7.28296e-11
7.28298e-11
7.28299e-11
7.283e-11
7.28302e-11
7.28303e-11
7.28304e-11
7.28305e-11
7.28307e-11
7.28308e-11
7.28309e-11
7.28311e-11
7.28312e-11
7.28313e-11
7.28314e-11
7.28315e-11
7.28317e-11
7.28318e-11
7.28319e-11
7.2832e-11
7.28321e-11
7.28323e-11
7.28324e-11
7.28325e-11
7.28327e-11
7.28328e-11
7.28329e-11
7.2833e-11
7.28331e-11
7.28333e-11
7.28334e-11
7.28336e-11
7.28338e-11
7.28339e-11
7.2834e-11
7.28341e-11
7.28342e-11
7.28344e-11
7.28345e-11
7.28346e-11
7.28347e-11
7.28349e-11
7.2835e-11
7.28351e-11
7.28352e-11
7.28354e-11
7.28355e-11
7.28356e-11
7.28357e-11
7.28359e-11
7.2836e-11
7.28361e-11
7.28363e-11
7.28364e-11
7.28366e-11
7.28367e-11
7.28368e-11
7.28369e-11
7.2837e-11
7.28371e-11
7.28373e-11
7.28374e-11
7.28375e-11
7.28376e-11
7.28378e-11
7.28379e-11
7.28381e-11
7.28382e-11
7.28383e-11
7.28384e-11
7.28385e-11
7.28387e-11
7.28388e-11
7.28389e-11
7.28391e-11
7.28392e-11
7.28393e-11
7.28395e-11
7.28396e-11
7.28397e-11
7.28398e-11
7.284e-11
7.28401e-11
7.28403e-11
7.28404e-11
7.28406e-11
7.28407e-11
7.28408e-11
7.28409e-11
7.28411e-11
7.28412e-11
7.28413e-11
7.28414e-11
7.28416e-11
7.28417e-11
7.28418e-11
7.2842e-11
7.28421e-11
7.28423e-11
7.28424e-11
7.28425e-11
7.28426e-11
7.28427e-11
7.28429e-11
7.28431e-11
7.28432e-11
7.28433e-11
7.28434e-11
7.28436e-11
7.28437e-11
7.28438e-11
7.2844e-11
7.28441e-11
7.28442e-11
7.28444e-11
7.28445e-11
7.28446e-11
7.28447e-11
7.28449e-11
7.28451e-11
7.28452e-11
7.28453e-11
7.28454e-11
7.28455e-11
7.28457e-11
7.28458e-11
7.2846e-11
7.28461e-11
7.28462e-11
7.28464e-11
7.28465e-11
7.28466e-11
7.28468e-11
7.28469e-11
7.2847e-11
7.28471e-11
7.28473e-11
7.28474e-11
7.28475e-11
7.28477e-11
7.28478e-11
7.2848e-11
7.28481e-11
7.28483e-11
7.28484e-11
7.28485e-11
7.28487e-11
7.28488e-11
7.2849e-11
7.28491e-11
7.28493e-11
7.28494e-11
7.28496e-11
7.28497e-11
7.28499e-11
7.285e-11
7.28501e-11
7.28502e-11
7.28504e-11
7.28505e-11
7.28506e-11
7.28507e-11
7.28509e-11
7.2851e-11
7.28512e-11
7.28513e-11
7.28514e-11
7.28516e-11
7.28517e-11
7.28519e-11
7.2852e-11
7.28522e-11
7.28523e-11
7.28524e-11
7.28526e-11
7.28527e-11
7.28528e-11
7.28529e-11
7.28531e-11
7.28532e-11
7.28534e-11
7.28536e-11
7.28537e-11
7.28538e-11
7.2854e-11
7.28541e-11
7.28542e-11
7.28544e-11
7.28545e-11
7.28547e-11
7.28548e-11
7.28549e-11
7.28551e-11
7.28553e-11
7.28554e-11
7.28556e-11
7.28557e-11
7.28559e-11
7.2856e-11
7.28562e-11
7.28563e-11
7.28564e-11
7.28565e-11
7.28567e-11
7.28568e-11
7.2857e-11
7.28571e-11
7.28573e-11
7.28574e-11
7.28575e-11
7.28577e-11
7.28578e-11
7.28579e-11
7.2858e-11
7.28582e-11
7.28584e-11
7.28585e-11
7.28587e-11
7.28589e-11
7.2859e-11
7.28591e-11
7.28593e-11
7.28594e-11
7.28595e-11
7.28597e-11
7.28598e-11
7.28599e-11
7.28601e-11
7.28602e-11
7.28604e-11
7.28605e-11
7.28607e-11
7.28608e-11
7.2861e-11
7.28611e-11
7.28612e-11
7.28614e-11
7.28616e-11
7.28616e-11
7.28618e-11
7.2862e-11
7.28621e-11
7.28622e-11
7.28624e-11
7.28626e-11
7.28627e-11
7.28629e-11
7.2863e-11
7.2863e-11
7.28632e-11
7.28634e-11
7.28636e-11
7.28637e-11
7.28639e-11
7.2864e-11
7.28641e-11
7.28643e-11
7.28644e-11
7.28646e-11
7.28647e-11
7.28649e-11
7.2865e-11
7.28651e-11
7.28653e-11
7.28655e-11
7.28656e-11
7.28657e-11
7.28659e-11
7.2866e-11
7.28662e-11
7.28663e-11
7.28665e-11
7.28666e-11
7.28668e-11
7.28669e-11
7.28671e-11
7.28672e-11
7.28673e-11
7.28675e-11
7.28676e-11
7.28678e-11
7.28679e-11
7.28681e-11
7.28682e-11
7.28684e-11
7.28685e-11
7.28687e-11
7.28688e-11
7.2869e-11
7.28691e-11
7.28693e-11
7.28694e-11
7.28695e-11
7.28697e-11
7.28698e-11
7.287e-11
7.28701e-11
7.28702e-11
7.28704e-11
7.28706e-11
7.28707e-11
7.28709e-11
7.2871e-11
7.28712e-11
7.28713e-11
7.28715e-11
7.28716e-11
7.28718e-11
7.28719e-11
7.2872e-11
7.28722e-11
7.28723e-11
7.28725e-11
7.28726e-11
7.28728e-11
7.28729e-11
7.28731e-11
7.28732e-11
7.28734e-11
7.28735e-11
7.28736e-11
7.28738e-11
7.2874e-11
7.28741e-11
7.28743e-11
7.28744e-11
7.28745e-11
7.28747e-11
7.28748e-11
7.2875e-11
7.28751e-11
7.28753e-11
7.28754e-11
7.28756e-11
7.28757e-11
7.28759e-11
7.2876e-11
7.28761e-11
7.28763e-11
7.28764e-11
7.28766e-11
7.28768e-11
7.28769e-11
7.28771e-11
7.28773e-11
7.28774e-11
7.28776e-11
7.28777e-11
7.28779e-11
7.2878e-11
7.28782e-11
7.28783e-11
7.28785e-11
7.28786e-11
7.28788e-11
7.28789e-11
7.28791e-11
7.28792e-11
7.28794e-11
7.28795e-11
7.28796e-11
7.28798e-11
7.28799e-11
7.288e-11
7.28802e-11
7.28803e-11
7.28805e-11
7.28806e-11
7.28808e-11
7.2881e-11
7.28811e-11
7.28813e-11
7.28814e-11
7.28817e-11
7.28818e-11
7.2882e-11
7.28821e-11
7.28823e-11
7.28823e-11
7.28825e-11
7.28827e-11
7.28828e-11
7.2883e-11
7.28831e-11
7.28833e-11
7.28834e-11
7.28836e-11
7.28837e-11
7.28838e-11
7.2884e-11
7.28841e-11
7.28843e-11
7.28844e-11
7.28845e-11
7.28847e-11
7.28849e-11
7.2885e-11
7.28852e-11
7.28853e-11
7.28854e-11
7.28856e-11
7.28857e-11
7.28859e-11
7.28861e-11
7.28862e-11
7.28864e-11
7.28866e-11
7.28867e-11
7.28869e-11
7.2887e-11
7.28872e-11
7.28874e-11
7.28875e-11
7.28877e-11
7.28879e-11
7.2888e-11
7.28881e-11
7.28883e-11
7.28885e-11
7.28887e-11
7.28888e-11
7.2889e-11
7.28891e-11
7.28892e-11
7.28894e-11
7.28895e-11
7.28897e-11
7.28899e-11
7.289e-11
7.28901e-11
7.28903e-11
7.28904e-11
7.28906e-11
7.28908e-11
7.28909e-11
7.2891e-11
7.28912e-11
7.28913e-11
7.28915e-11
7.28916e-11
7.28917e-11
7.28919e-11
7.28921e-11
7.28922e-11
7.28923e-11
7.28925e-11
7.28926e-11
7.28928e-11
7.28931e-11
7.28932e-11
7.28934e-11
7.28936e-11
7.28937e-11
7.28938e-11
7.2894e-11
7.28942e-11
7.28943e-11
7.28944e-11
7.28945e-11
7.28947e-11
7.28948e-11
7.28951e-11
7.28952e-11
7.28953e-11
7.28955e-11
7.28957e-11
7.28958e-11
7.2896e-11
7.28962e-11
7.28963e-11
7.28965e-11
7.28967e-11
7.28968e-11
7.2897e-11
7.28972e-11
7.28973e-11
7.28975e-11
7.28976e-11
7.28978e-11
7.2898e-11
7.28981e-11
7.28982e-11
7.28984e-11
7.28985e-11
7.28987e-11
7.28988e-11
7.2899e-11
7.28992e-11
7.28993e-11
7.28995e-11
7.28996e-11
7.28998e-11
7.28999e-11
7.29001e-11
7.29002e-11
7.29004e-11
7.29006e-11
7.29008e-11
7.29009e-11
7.2901e-11
7.29012e-11
7.29014e-11
7.29015e-11
7.29016e-11
7.29018e-11
7.2902e-11
7.29022e-11
7.29023e-11
7.29025e-11
7.29026e-11
7.29028e-11
7.2903e-11
7.29031e-11
7.29033e-11
7.29035e-11
7.29036e-11
7.29037e-11
7.29039e-11
7.29041e-11
7.29043e-11
7.29044e-11
7.29046e-11
7.29047e-11
7.29049e-11
7.2905e-11
7.29052e-11
7.29053e-11
7.29055e-11
7.29057e-11
7.29058e-11
7.2906e-11
7.29062e-11
7.29064e-11
7.29065e-11
7.29067e-11
7.29068e-11
7.2907e-11
7.29071e-11
7.29072e-11
7.29074e-11
7.29076e-11
7.29078e-11
7.2908e-11
7.29082e-11
7.29083e-11
7.29085e-11
7.29087e-11
7.29088e-11
7.29089e-11
7.29091e-11
7.29092e-11
7.29094e-11
7.29096e-11
7.29098e-11
7.29099e-11
7.29101e-11
)
;

boundaryField
{
    fixedWall
    {
        type            zeroGradient;
    }
    outlet
    {
        type            inletOutlet;
        inletValue      uniform 0;
        value           uniform 7.29101e-11;
    }
    defaultFaces
    {
        type            empty;
    }
}


// ************************************************************************* //
