/*--------------------------------*- C++ -*----------------------------------*\
| =========                 |                                                 |
| \\      /  F ield         | OpenFOAM: The Open Source CFD Toolbox           |
|  \\    /   O peration     | Version:  2406                                  |
|   \\  /    A nd           | Website:  www.openfoam.com                      |
|    \\/     M anipulation  |                                                 |
\*---------------------------------------------------------------------------*/
FoamFile
{
    version     2.0;
    format      ascii;
    arch        "LSB;label=32;scalar=64";
    class       volScalarField;
    location    "0.7";
    object      H2O;
}
// * * * * * * * * * * * * * * * * * * * * * * * * * * * * * * * * * * * * * //

dimensions      [0 0 0 0 0 0 0];

internalField   nonuniform List<scalar> 
1000
(
0.0580664
0.0580664
0.0580664
0.0580663
0.0580663
0.0580663
0.0580662
0.0580662
0.0580662
0.0580661
0.0580661
0.0580661
0.058066
0.058066
0.058066
0.0580659
0.0580659
0.0580659
0.0580659
0.0580658
0.0580658
0.0580657
0.0580657
0.0580657
0.0580656
0.0580656
0.0580655
0.0580655
0.0580654
0.0580653
0.0580653
0.0580652
0.0580652
0.0580651
0.058065
0.058065
0.0580649
0.0580648
0.0580648
0.0580647
0.0580646
0.0580646
0.0580645
0.0580644
0.0580643
0.0580643
0.0580642
0.0580641
0.0580641
0.058064
0.0580639
0.0580638
0.0580637
0.0580636
0.0580636
0.0580635
0.0580634
0.0580633
0.0580632
0.0580631
0.058063
0.0580628
0.0580627
0.0580626
0.0580625
0.0580623
0.0580622
0.058062
0.0580618
0.0580616
0.0580614
0.0580612
0.058061
0.0580608
0.0580605
0.0580602
0.0580599
0.0580596
0.0580592
0.0580588
0.0580584
0.058058
0.0580574
0.0580569
0.0580562
0.0580555
0.0580547
0.0580538
0.0580528
0.0580515
0.0580501
0.0580485
0.0580464
0.058044
0.0580409
0.0580371
0.058032
0.0580251
0.0580152
0.0580001
0.0579752
0.0579294
0.0578309
0.0575768
0.0567981
0.0540494
0.0423065
0.0205085
0.00985327
0.00476268
0.00231766
0.00113397
0.000556998
0.00027434
0.000135374
6.68838e-05
3.30706e-05
1.63584e-05
8.09274e-06
4.00323e-06
1.97975e-06
9.7867e-07
4.83559e-07
2.38792e-07
1.17851e-07
5.81295e-08
2.86567e-08
1.41224e-08
6.95959e-09
3.43368e-09
1.6984e-09
8.44519e-10
4.27867e-10
2.16142e-10
1.19235e-10
7.38525e-11
5.45672e-11
4.16142e-11
3.40161e-11
2.99098e-11
2.61465e-11
2.49517e-11
2.42199e-11
2.38127e-11
2.35505e-11
2.33962e-11
2.3307e-11
2.32667e-11
2.32311e-11
2.32156e-11
2.32089e-11
2.32024e-11
2.32002e-11
2.31984e-11
2.31977e-11
2.31972e-11
2.31968e-11
2.31967e-11
2.31966e-11
2.31966e-11
2.31965e-11
2.31965e-11
2.31965e-11
2.31965e-11
2.31965e-11
2.31965e-11
2.31965e-11
2.31965e-11
2.31965e-11
2.31965e-11
2.31965e-11
2.31965e-11
2.31965e-11
2.31966e-11
2.31966e-11
2.31966e-11
2.31966e-11
2.31966e-11
2.31966e-11
2.31966e-11
2.31966e-11
2.31966e-11
2.31966e-11
2.31966e-11
2.31966e-11
2.31966e-11
2.31966e-11
2.31966e-11
2.31966e-11
2.31966e-11
2.31966e-11
2.31966e-11
2.31967e-11
2.31967e-11
2.31967e-11
2.31967e-11
2.31967e-11
2.31967e-11
2.31967e-11
2.31967e-11
2.31967e-11
2.31967e-11
2.31967e-11
2.31967e-11
2.31967e-11
2.31967e-11
2.31967e-11
2.31967e-11
2.31967e-11
2.31968e-11
2.31968e-11
2.31968e-11
2.31968e-11
2.31968e-11
2.31968e-11
2.31968e-11
2.31968e-11
2.31968e-11
2.31968e-11
2.31968e-11
2.31968e-11
2.31968e-11
2.31968e-11
2.31968e-11
2.31968e-11
2.31968e-11
2.31968e-11
2.31968e-11
2.31968e-11
2.31969e-11
2.31969e-11
2.31969e-11
2.31969e-11
2.31969e-11
2.31969e-11
2.31969e-11
2.31969e-11
2.31969e-11
2.31969e-11
2.31969e-11
2.31969e-11
2.31969e-11
2.31969e-11
2.31969e-11
2.31969e-11
2.31969e-11
2.31969e-11
2.31969e-11
2.31969e-11
2.3197e-11
2.3197e-11
2.3197e-11
2.3197e-11
2.3197e-11
2.3197e-11
2.3197e-11
2.3197e-11
2.3197e-11
2.3197e-11
2.3197e-11
2.3197e-11
2.3197e-11
2.3197e-11
2.3197e-11
2.3197e-11
2.3197e-11
2.3197e-11
2.3197e-11
2.3197e-11
2.3197e-11
2.3197e-11
2.3197e-11
2.31971e-11
2.31971e-11
2.31971e-11
2.31971e-11
2.31971e-11
2.31971e-11
2.31971e-11
2.31971e-11
2.31971e-11
2.31971e-11
2.31971e-11
2.31971e-11
2.31971e-11
2.31971e-11
2.31971e-11
2.31971e-11
2.31971e-11
2.31971e-11
2.31971e-11
2.31971e-11
2.31971e-11
2.31971e-11
2.31971e-11
2.31972e-11
2.31972e-11
2.31972e-11
2.31972e-11
2.31972e-11
2.31972e-11
2.31972e-11
2.31972e-11
2.31972e-11
2.31972e-11
2.31972e-11
2.31972e-11
2.31972e-11
2.31972e-11
2.31972e-11
2.31972e-11
2.31972e-11
2.31972e-11
2.31972e-11
2.31972e-11
2.31972e-11
2.31972e-11
2.31972e-11
2.31972e-11
2.31973e-11
2.31973e-11
2.31973e-11
2.31973e-11
2.31973e-11
2.31973e-11
2.31973e-11
2.31973e-11
2.31973e-11
2.31973e-11
2.31973e-11
2.31973e-11
2.31973e-11
2.31973e-11
2.31973e-11
2.31973e-11
2.31973e-11
2.31973e-11
2.31973e-11
2.31973e-11
2.31973e-11
2.31973e-11
2.31974e-11
2.31974e-11
2.31974e-11
2.31974e-11
2.31974e-11
2.31974e-11
2.31974e-11
2.31974e-11
2.31974e-11
2.31974e-11
2.31974e-11
2.31974e-11
2.31974e-11
2.31974e-11
2.31974e-11
2.31974e-11
2.31974e-11
2.31974e-11
2.31974e-11
2.31974e-11
2.31975e-11
2.31975e-11
2.31975e-11
2.31975e-11
2.31975e-11
2.31975e-11
2.31975e-11
2.31975e-11
2.31975e-11
2.31975e-11
2.31975e-11
2.31975e-11
2.31975e-11
2.31975e-11
2.31975e-11
2.31975e-11
2.31975e-11
2.31976e-11
2.31976e-11
2.31976e-11
2.31976e-11
2.31976e-11
2.31976e-11
2.31976e-11
2.31976e-11
2.31976e-11
2.31976e-11
2.31976e-11
2.31976e-11
2.31976e-11
2.31976e-11
2.31976e-11
2.31976e-11
2.31977e-11
2.31977e-11
2.31977e-11
2.31977e-11
2.31977e-11
2.31977e-11
2.31977e-11
2.31977e-11
2.31977e-11
2.31977e-11
2.31977e-11
2.31977e-11
2.31977e-11
2.31977e-11
2.31978e-11
2.31978e-11
2.31978e-11
2.31978e-11
2.31978e-11
2.31978e-11
2.31978e-11
2.31978e-11
2.31978e-11
2.31978e-11
2.31978e-11
2.31978e-11
2.31978e-11
2.31978e-11
2.31979e-11
2.31979e-11
2.31979e-11
2.31979e-11
2.31979e-11
2.31979e-11
2.31979e-11
2.31979e-11
2.31979e-11
2.31979e-11
2.31979e-11
2.31979e-11
2.31979e-11
2.3198e-11
2.3198e-11
2.3198e-11
2.3198e-11
2.3198e-11
2.3198e-11
2.3198e-11
2.3198e-11
2.3198e-11
2.3198e-11
2.3198e-11
2.3198e-11
2.31981e-11
2.31981e-11
2.31981e-11
2.31981e-11
2.31981e-11
2.31981e-11
2.31981e-11
2.31981e-11
2.31981e-11
2.31981e-11
2.31981e-11
2.31982e-11
2.31982e-11
2.31982e-11
2.31982e-11
2.31982e-11
2.31982e-11
2.31982e-11
2.31982e-11
2.31982e-11
2.31982e-11
2.31982e-11
2.31983e-11
2.31983e-11
2.31983e-11
2.31983e-11
2.31983e-11
2.31983e-11
2.31983e-11
2.31983e-11
2.31983e-11
2.31983e-11
2.31983e-11
2.31984e-11
2.31984e-11
2.31984e-11
2.31984e-11
2.31984e-11
2.31984e-11
2.31984e-11
2.31984e-11
2.31984e-11
2.31984e-11
2.31985e-11
2.31985e-11
2.31985e-11
2.31985e-11
2.31985e-11
2.31985e-11
2.31985e-11
2.31985e-11
2.31985e-11
2.31985e-11
2.31986e-11
2.31986e-11
2.31986e-11
2.31986e-11
2.31986e-11
2.31986e-11
2.31986e-11
2.31986e-11
2.31986e-11
2.31986e-11
2.31987e-11
2.31987e-11
2.31987e-11
2.31987e-11
2.31987e-11
2.31987e-11
2.31987e-11
2.31987e-11
2.31987e-11
2.31987e-11
2.31988e-11
2.31988e-11
2.31988e-11
2.31988e-11
2.31988e-11
2.31988e-11
2.31988e-11
2.31988e-11
2.31988e-11
2.31989e-11
2.31989e-11
2.31989e-11
2.31989e-11
2.31989e-11
2.31989e-11
2.31989e-11
2.31989e-11
2.31989e-11
2.31989e-11
2.3199e-11
2.3199e-11
2.3199e-11
2.3199e-11
2.3199e-11
2.3199e-11
2.3199e-11
2.3199e-11
2.3199e-11
2.31991e-11
2.31991e-11
2.31991e-11
2.31991e-11
2.31991e-11
2.31991e-11
2.31991e-11
2.31991e-11
2.31991e-11
2.31992e-11
2.31992e-11
2.31992e-11
2.31992e-11
2.31992e-11
2.31992e-11
2.31992e-11
2.31992e-11
2.31992e-11
2.31993e-11
2.31993e-11
2.31993e-11
2.31993e-11
2.31993e-11
2.31993e-11
2.31993e-11
2.31993e-11
2.31993e-11
2.31994e-11
2.31994e-11
2.31994e-11
2.31994e-11
2.31994e-11
2.31994e-11
2.31994e-11
2.31994e-11
2.31995e-11
2.31995e-11
2.31995e-11
2.31995e-11
2.31995e-11
2.31995e-11
2.31995e-11
2.31995e-11
2.31995e-11
2.31996e-11
2.31996e-11
2.31996e-11
2.31996e-11
2.31996e-11
2.31996e-11
2.31996e-11
2.31996e-11
2.31996e-11
2.31997e-11
2.31997e-11
2.31997e-11
2.31997e-11
2.31997e-11
2.31997e-11
2.31997e-11
2.31997e-11
2.31998e-11
2.31998e-11
2.31998e-11
2.31998e-11
2.31998e-11
2.31998e-11
2.31998e-11
2.31998e-11
2.31999e-11
2.31999e-11
2.31999e-11
2.31999e-11
2.31999e-11
2.31999e-11
2.31999e-11
2.31999e-11
2.31999e-11
2.32e-11
2.32e-11
2.32e-11
2.32e-11
2.32e-11
2.32e-11
2.32e-11
2.32e-11
2.32001e-11
2.32001e-11
2.32001e-11
2.32001e-11
2.32001e-11
2.32001e-11
2.32001e-11
2.32001e-11
2.32002e-11
2.32002e-11
2.32002e-11
2.32002e-11
2.32002e-11
2.32002e-11
2.32002e-11
2.32002e-11
2.32003e-11
2.32003e-11
2.32003e-11
2.32003e-11
2.32003e-11
2.32003e-11
2.32003e-11
2.32003e-11
2.32004e-11
2.32004e-11
2.32004e-11
2.32004e-11
2.32004e-11
2.32004e-11
2.32004e-11
2.32005e-11
2.32005e-11
2.32005e-11
2.32005e-11
2.32005e-11
2.32005e-11
2.32005e-11
2.32005e-11
2.32006e-11
2.32006e-11
2.32006e-11
2.32006e-11
2.32006e-11
2.32006e-11
2.32006e-11
2.32006e-11
2.32007e-11
2.32007e-11
2.32007e-11
2.32007e-11
2.32007e-11
2.32007e-11
2.32007e-11
2.32008e-11
2.32008e-11
2.32008e-11
2.32008e-11
2.32008e-11
2.32008e-11
2.32008e-11
2.32008e-11
2.32009e-11
2.32009e-11
2.32009e-11
2.32009e-11
2.32009e-11
2.32009e-11
2.32009e-11
2.3201e-11
2.3201e-11
2.3201e-11
2.3201e-11
2.3201e-11
2.3201e-11
2.3201e-11
2.32011e-11
2.32011e-11
2.32011e-11
2.32011e-11
2.32011e-11
2.32011e-11
2.32011e-11
2.32012e-11
2.32012e-11
2.32012e-11
2.32012e-11
2.32012e-11
2.32012e-11
2.32012e-11
2.32012e-11
2.32013e-11
2.32013e-11
2.32013e-11
2.32013e-11
2.32013e-11
2.32013e-11
2.32013e-11
2.32014e-11
2.32014e-11
2.32014e-11
2.32014e-11
2.32014e-11
2.32014e-11
2.32014e-11
2.32015e-11
2.32015e-11
2.32015e-11
2.32015e-11
2.32015e-11
2.32015e-11
2.32016e-11
2.32016e-11
2.32016e-11
2.32016e-11
2.32016e-11
2.32016e-11
2.32016e-11
2.32017e-11
2.32017e-11
2.32017e-11
2.32017e-11
2.32017e-11
2.32017e-11
2.32017e-11
2.32018e-11
2.32018e-11
2.32018e-11
2.32018e-11
2.32018e-11
2.32018e-11
2.32018e-11
2.32019e-11
2.32019e-11
2.32019e-11
2.32019e-11
2.32019e-11
2.32019e-11
2.3202e-11
2.3202e-11
2.3202e-11
2.3202e-11
2.3202e-11
2.3202e-11
2.3202e-11
2.32021e-11
2.32021e-11
2.32021e-11
2.32021e-11
2.32021e-11
2.32021e-11
2.32022e-11
2.32022e-11
2.32022e-11
2.32022e-11
2.32022e-11
2.32022e-11
2.32022e-11
2.32023e-11
2.32023e-11
2.32023e-11
2.32023e-11
2.32023e-11
2.32023e-11
2.32024e-11
2.32024e-11
2.32024e-11
2.32024e-11
2.32024e-11
2.32024e-11
2.32025e-11
2.32025e-11
2.32025e-11
2.32025e-11
2.32025e-11
2.32025e-11
2.32026e-11
2.32026e-11
2.32026e-11
2.32026e-11
2.32026e-11
2.32026e-11
2.32027e-11
2.32027e-11
2.32027e-11
2.32027e-11
2.32027e-11
2.32027e-11
2.32027e-11
2.32028e-11
2.32028e-11
2.32028e-11
2.32028e-11
2.32028e-11
2.32029e-11
2.32029e-11
2.32029e-11
2.32029e-11
2.32029e-11
2.32029e-11
2.32029e-11
2.3203e-11
2.3203e-11
2.3203e-11
2.3203e-11
2.3203e-11
2.32031e-11
2.32031e-11
2.32031e-11
2.32031e-11
2.32031e-11
2.32031e-11
2.32032e-11
2.32032e-11
2.32032e-11
2.32032e-11
2.32032e-11
2.32032e-11
2.32033e-11
2.32033e-11
2.32033e-11
2.32033e-11
2.32033e-11
2.32033e-11
2.32034e-11
2.32034e-11
2.32034e-11
2.32034e-11
2.32034e-11
2.32034e-11
2.32035e-11
2.32035e-11
2.32035e-11
2.32035e-11
2.32035e-11
2.32036e-11
2.32036e-11
2.32036e-11
2.32036e-11
2.32036e-11
2.32036e-11
2.32037e-11
2.32037e-11
2.32037e-11
2.32037e-11
2.32037e-11
2.32037e-11
2.32038e-11
2.32038e-11
2.32038e-11
2.32038e-11
2.32038e-11
2.32039e-11
2.32039e-11
2.32039e-11
2.32039e-11
2.32039e-11
2.32039e-11
2.3204e-11
2.3204e-11
2.3204e-11
2.3204e-11
2.3204e-11
2.32041e-11
2.32041e-11
2.32041e-11
2.32041e-11
2.32041e-11
2.32041e-11
2.32042e-11
2.32042e-11
2.32042e-11
2.32042e-11
2.32042e-11
2.32043e-11
2.32043e-11
2.32043e-11
2.32043e-11
2.32043e-11
2.32044e-11
2.32044e-11
2.32044e-11
2.32044e-11
2.32044e-11
2.32044e-11
2.32045e-11
2.32045e-11
2.32045e-11
2.32045e-11
2.32045e-11
2.32046e-11
2.32046e-11
2.32046e-11
2.32046e-11
2.32046e-11
2.32046e-11
2.32047e-11
2.32047e-11
2.32047e-11
2.32047e-11
2.32047e-11
2.32048e-11
2.32048e-11
2.32048e-11
2.32048e-11
2.32048e-11
2.32049e-11
2.32049e-11
2.32049e-11
2.32049e-11
2.32049e-11
2.3205e-11
2.3205e-11
2.3205e-11
2.3205e-11
2.3205e-11
2.32051e-11
2.32051e-11
2.32051e-11
2.32051e-11
2.32051e-11
2.32051e-11
2.32052e-11
2.32052e-11
2.32052e-11
2.32052e-11
2.32052e-11
2.32053e-11
2.32053e-11
2.32053e-11
2.32053e-11
2.32053e-11
2.32054e-11
2.32054e-11
2.32054e-11
2.32054e-11
2.32054e-11
2.32054e-11
2.32055e-11
2.32055e-11
2.32055e-11
2.32055e-11
2.32055e-11
2.32056e-11
2.32056e-11
2.32056e-11
2.32056e-11
2.32056e-11
2.32057e-11
2.32057e-11
2.32057e-11
2.32057e-11
2.32057e-11
2.32058e-11
2.32058e-11
2.32058e-11
2.32058e-11
2.32058e-11
2.32059e-11
2.32059e-11
2.32059e-11
2.32059e-11
2.32059e-11
2.3206e-11
2.3206e-11
2.3206e-11
)
;

boundaryField
{
    fixedWall
    {
        type            zeroGradient;
    }
    outlet
    {
        type            inletOutlet;
        inletValue      uniform 0;
        value           uniform 2.3206e-11;
    }
    defaultFaces
    {
        type            empty;
    }
}


// ************************************************************************* //
