/*--------------------------------*- C++ -*----------------------------------*\
| =========                 |                                                 |
| \\      /  F ield         | OpenFOAM: The Open Source CFD Toolbox           |
|  \\    /   O peration     | Version:  2406                                  |
|   \\  /    A nd           | Website:  www.openfoam.com                      |
|    \\/     M anipulation  |                                                 |
\*---------------------------------------------------------------------------*/
FoamFile
{
    version     2.0;
    format      ascii;
    arch        "LSB;label=32;scalar=64";
    class       volVectorField;
    location    "0.7";
    object      U;
}
// * * * * * * * * * * * * * * * * * * * * * * * * * * * * * * * * * * * * * //

dimensions      [0 1 -1 0 0 0 0];

internalField   nonuniform List<vector> 
1000
(
(-0.000121359 0 0)
(-0.000411969 0 0)
(-0.000840605 0 0)
(-0.00133059 0 0)
(-0.00184474 0 0)
(-0.00236662 0 0)
(-0.00288726 0 0)
(-0.00340016 0 0)
(-0.00390023 0 0)
(-0.0043836 0 0)
(-0.00484731 0 0)
(-0.00528913 0 0)
(-0.00570738 0 0)
(-0.00610085 0 0)
(-0.00646876 0 0)
(-0.00681067 0 0)
(-0.00712643 0 0)
(-0.00741619 0 0)
(-0.00768035 0 0)
(-0.00791949 0 0)
(-0.0081344 0 0)
(-0.00832603 0 0)
(-0.00849547 0 0)
(-0.00864391 0 0)
(-0.00877263 0 0)
(-0.00888294 0 0)
(-0.00897617 0 0)
(-0.00905389 0 0)
(-0.00911766 0 0)
(-0.00916881 0 0)
(-0.00920868 0 0)
(-0.0092386 0 0)
(-0.00925985 0 0)
(-0.00927375 0 0)
(-0.00928119 0 0)
(-0.00928351 0 0)
(-0.00928155 0 0)
(-0.00927605 0 0)
(-0.009268 0 0)
(-0.00925793 0 0)
(-0.00924647 0 0)
(-0.00923412 0 0)
(-0.0092213 0 0)
(-0.00920836 0 0)
(-0.00919556 0 0)
(-0.00918313 0 0)
(-0.00917122 0 0)
(-0.00915996 0 0)
(-0.00914942 0 0)
(-0.00913965 0 0)
(-0.00913065 0 0)
(-0.00912244 0 0)
(-0.00911499 0 0)
(-0.00910826 0 0)
(-0.00910222 0 0)
(-0.00909683 0 0)
(-0.00909203 0 0)
(-0.00908777 0 0)
(-0.00908401 0 0)
(-0.0090807 0 0)
(-0.0090778 0 0)
(-0.00907521 0 0)
(-0.009073 0 0)
(-0.00907104 0 0)
(-0.0090693 0 0)
(-0.00906781 0 0)
(-0.00906647 0 0)
(-0.0090653 0 0)
(-0.00906426 0 0)
(-0.00906334 0 0)
(-0.00906252 0 0)
(-0.00906177 0 0)
(-0.0090611 0 0)
(-0.00906047 0 0)
(-0.00905986 0 0)
(-0.00905926 0 0)
(-0.00905863 0 0)
(-0.00905794 0 0)
(-0.00905714 0 0)
(-0.00905621 0 0)
(-0.00905507 0 0)
(-0.00905379 0 0)
(-0.00905221 0 0)
(-0.00905048 0 0)
(-0.00904858 0 0)
(-0.00904647 0 0)
(-0.00904435 0 0)
(-0.0090422 0 0)
(-0.0090401 0 0)
(-0.00903809 0 0)
(-0.00903611 0 0)
(-0.00903408 0 0)
(-0.00903173 0 0)
(-0.00902873 0 0)
(-0.00902453 0 0)
(-0.00901883 0 0)
(-0.00901121 0 0)
(-0.00900151 0 0)
(-0.00898492 0 0)
(-0.00896341 0 0)
(-0.00892532 0 0)
(-0.0089456 0 0)
(-0.00921358 0 0)
(-0.00952464 0 0)
(-0.0111416 0 0)
(-0.00910884 0 0)
(0.0149276 0 0)
(0.0519966 0 0)
(0.0762804 0 0)
(0.0879974 0 0)
(0.0934121 0 0)
(0.0958173 0 0)
(0.0969055 0 0)
(0.0974268 0 0)
(0.0976621 0 0)
(0.0978213 0 0)
(0.0978892 0 0)
(0.0978976 0 0)
(0.0979427 0 0)
(0.0979533 0 0)
(0.0979359 0 0)
(0.0979584 0 0)
(0.0979642 0 0)
(0.0979368 0 0)
(0.0979643 0 0)
(0.0979646 0 0)
(0.0979467 0 0)
(0.0979598 0 0)
(0.0979619 0 0)
(0.0979476 0 0)
(0.0979569 0 0)
(0.0979519 0 0)
(0.0979636 0 0)
(0.0979619 0 0)
(0.0979414 0 0)
(0.0979656 0 0)
(0.0979635 0 0)
(0.0979461 0 0)
(0.0979568 0 0)
(0.0979529 0 0)
(0.0979606 0 0)
(0.0979605 0 0)
(0.0979469 0 0)
(0.0979601 0 0)
(0.0979492 0 0)
(0.097965 0 0)
(0.0979636 0 0)
(0.0979386 0 0)
(0.0979637 0 0)
(0.097966 0 0)
(0.0979403 0 0)
(0.0979608 0 0)
(0.0979601 0 0)
(0.0979595 0 0)
(0.0979487 0 0)
(0.0979499 0 0)
(0.0979635 0 0)
(0.0979469 0 0)
(0.0979609 0 0)
(0.0979608 0 0)
(0.0979497 0 0)
(0.0979545 0 0)
(0.0979527 0 0)
(0.0979617 0 0)
(0.0979597 0 0)
(0.0979427 0 0)
(0.0979619 0 0)
(0.0979591 0 0)
(0.0979467 0 0)
(0.0979579 0 0)
(0.0979536 0 0)
(0.09796 0 0)
(0.0979599 0 0)
(0.0979382 0 0)
(0.0979619 0 0)
(0.0979675 0 0)
(0.0979435 0 0)
(0.0979607 0 0)
(0.0979597 0 0)
(0.0979452 0 0)
(0.0979589 0 0)
(0.0979508 0 0)
(0.0979604 0 0)
(0.0979609 0 0)
(0.0979407 0 0)
(0.0979617 0 0)
(0.0979642 0 0)
(0.0979393 0 0)
(0.0979608 0 0)
(0.0979628 0 0)
(0.0979409 0 0)
(0.0979591 0 0)
(0.0979625 0 0)
(0.0979577 0 0)
(0.0979349 0 0)
(0.0979565 0 0)
(0.0979672 0 0)
(0.0979444 0 0)
(0.0979615 0 0)
(0.0979477 0 0)
(0.0979586 0 0)
(0.0979583 0 0)
(0.0979563 0 0)
(0.0979441 0 0)
(0.0979525 0 0)
(0.0979632 0 0)
(0.0979448 0 0)
(0.0979613 0 0)
(0.0979592 0 0)
(0.0979415 0 0)
(0.0979552 0 0)
(0.0979612 0 0)
(0.0979572 0 0)
(0.0979411 0 0)
(0.0979562 0 0)
(0.0979614 0 0)
(0.0979423 0 0)
(0.0979619 0 0)
(0.097963 0 0)
(0.0979454 0 0)
(0.0979377 0 0)
(0.0979634 0 0)
(0.0979668 0 0)
(0.0979346 0 0)
(0.0979575 0 0)
(0.0979647 0 0)
(0.0979421 0 0)
(0.097958 0 0)
(0.0979587 0 0)
(0.0979422 0 0)
(0.0979558 0 0)
(0.0979529 0 0)
(0.0979587 0 0)
(0.0979558 0 0)
(0.0979417 0 0)
(0.0979612 0 0)
(0.0979589 0 0)
(0.0979379 0 0)
(0.0979597 0 0)
(0.0979626 0 0)
(0.0979435 0 0)
(0.0979549 0 0)
(0.0979511 0 0)
(0.0979573 0 0)
(0.0979556 0 0)
(0.0979426 0 0)
(0.0979583 0 0)
(0.0979549 0 0)
(0.0979411 0 0)
(0.0979642 0 0)
(0.0979608 0 0)
(0.0979332 0 0)
(0.0979555 0 0)
(0.097966 0 0)
(0.0979536 0 0)
(0.0979305 0 0)
(0.0979569 0 0)
(0.0979647 0 0)
(0.097941 0 0)
(0.0979608 0 0)
(0.0979594 0 0)
(0.0979374 0 0)
(0.0979552 0 0)
(0.0979652 0 0)
(0.0979337 0 0)
(0.0979616 0 0)
(0.0979626 0 0)
(0.0979402 0 0)
(0.0979584 0 0)
(0.0979568 0 0)
(0.0979395 0 0)
(0.0979564 0 0)
(0.0979619 0 0)
(0.0979389 0 0)
(0.0979569 0 0)
(0.09796 0 0)
(0.0979409 0 0)
(0.0979541 0 0)
(0.0979511 0 0)
(0.0979559 0 0)
(0.0979559 0 0)
(0.0979386 0 0)
(0.0979565 0 0)
(0.0979615 0 0)
(0.0979426 0 0)
(0.0979522 0 0)
(0.0979487 0 0)
(0.097957 0 0)
(0.0979568 0 0)
(0.0979415 0 0)
(0.0979522 0 0)
(0.0979561 0 0)
(0.0979526 0 0)
(0.0979444 0 0)
(0.0979506 0 0)
(0.0979522 0 0)
(0.0979545 0 0)
(0.0979539 0 0)
(0.097941 0 0)
(0.0979579 0 0)
(0.0979552 0 0)
(0.0979373 0 0)
(0.0979568 0 0)
(0.0979594 0 0)
(0.0979411 0 0)
(0.0979522 0 0)
(0.0979503 0 0)
(0.097954 0 0)
(0.0979532 0 0)
(0.0979403 0 0)
(0.0979532 0 0)
(0.0979581 0 0)
(0.097954 0 0)
(0.0979349 0 0)
(0.0979518 0 0)
(0.0979596 0 0)
(0.0979409 0 0)
(0.0979572 0 0)
(0.097946 0 0)
(0.0979554 0 0)
(0.0979542 0 0)
(0.0979357 0 0)
(0.0979564 0 0)
(0.0979594 0 0)
(0.0979359 0 0)
(0.0979578 0 0)
(0.0979585 0 0)
(0.0979328 0 0)
(0.0979586 0 0)
(0.097959 0 0)
(0.0979391 0 0)
(0.0979545 0 0)
(0.097954 0 0)
(0.0979413 0 0)
(0.0979539 0 0)
(0.0979541 0 0)
(0.0979362 0 0)
(0.0979577 0 0)
(0.0979561 0 0)
(0.0979363 0 0)
(0.0979521 0 0)
(0.0979582 0 0)
(0.0979526 0 0)
(0.0979324 0 0)
(0.0979473 0 0)
(0.09796 0 0)
(0.0979443 0 0)
(0.0979514 0 0)
(0.09795 0 0)
(0.0979433 0 0)
(0.0979509 0 0)
(0.0979534 0 0)
(0.097944 0 0)
(0.0979515 0 0)
(0.0979504 0 0)
(0.0979443 0 0)
(0.0979513 0 0)
(0.097949 0 0)
(0.0979467 0 0)
(0.0979457 0 0)
(0.097952 0 0)
(0.0979504 0 0)
(0.097951 0 0)
(0.0979414 0 0)
(0.0979515 0 0)
(0.0979512 0 0)
(0.0979397 0 0)
(0.0979548 0 0)
(0.0979473 0 0)
(0.097949 0 0)
(0.0979445 0 0)
(0.0979514 0 0)
(0.097953 0 0)
(0.0979453 0 0)
(0.0979359 0 0)
(0.0979517 0 0)
(0.0979559 0 0)
(0.0979398 0 0)
(0.0979511 0 0)
(0.0979539 0 0)
(0.0979479 0 0)
(0.0979346 0 0)
(0.0979518 0 0)
(0.0979591 0 0)
(0.0979321 0 0)
(0.0979526 0 0)
(0.0979565 0 0)
(0.0979373 0 0)
(0.0979496 0 0)
(0.097947 0 0)
(0.0979519 0 0)
(0.0979502 0 0)
(0.0979365 0 0)
(0.0979489 0 0)
(0.0979496 0 0)
(0.0979492 0 0)
(0.0979426 0 0)
(0.0979504 0 0)
(0.0979512 0 0)
(0.0979376 0 0)
(0.0979528 0 0)
(0.0979519 0 0)
(0.0979352 0 0)
(0.0979509 0 0)
(0.0979534 0 0)
(0.0979396 0 0)
(0.09795 0 0)
(0.097947 0 0)
(0.0979411 0 0)
(0.0979502 0 0)
(0.0979543 0 0)
(0.0979363 0 0)
(0.0979477 0 0)
(0.0979481 0 0)
(0.0979484 0 0)
(0.0979429 0 0)
(0.0979484 0 0)
(0.0979502 0 0)
(0.0979398 0 0)
(0.0979495 0 0)
(0.0979434 0 0)
(0.0979494 0 0)
(0.0979498 0 0)
(0.0979462 0 0)
(0.0979328 0 0)
(0.0979492 0 0)
(0.0979535 0 0)
(0.0979344 0 0)
(0.0979546 0 0)
(0.0979534 0 0)
(0.097932 0 0)
(0.0979508 0 0)
(0.097954 0 0)
(0.0979322 0 0)
(0.0979538 0 0)
(0.0979527 0 0)
(0.0979323 0 0)
(0.0979496 0 0)
(0.0979544 0 0)
(0.0979358 0 0)
(0.0979454 0 0)
(0.0979503 0 0)
(0.097942 0 0)
(0.0979489 0 0)
(0.0979429 0 0)
(0.097944 0 0)
(0.097943 0 0)
(0.0979445 0 0)
(0.0979509 0 0)
(0.0979429 0 0)
(0.0979447 0 0)
(0.0979414 0 0)
(0.0979487 0 0)
(0.0979475 0 0)
(0.09794 0 0)
(0.0979482 0 0)
(0.0979417 0 0)
(0.0979485 0 0)
(0.097949 0 0)
(0.097935 0 0)
(0.097948 0 0)
(0.0979497 0 0)
(0.0979351 0 0)
(0.0979467 0 0)
(0.0979468 0 0)
(0.0979419 0 0)
(0.0979488 0 0)
(0.0979406 0 0)
(0.097944 0 0)
(0.0979435 0 0)
(0.0979484 0 0)
(0.0979482 0 0)
(0.0979341 0 0)
(0.0979446 0 0)
(0.0979484 0 0)
(0.0979389 0 0)
(0.0979501 0 0)
(0.097944 0 0)
(0.0979458 0 0)
(0.0979364 0 0)
(0.0979437 0 0)
(0.097952 0 0)
(0.0979444 0 0)
(0.0979304 0 0)
(0.0979459 0 0)
(0.0979541 0 0)
(0.0979309 0 0)
(0.0979543 0 0)
(0.0979435 0 0)
(0.0979437 0 0)
(0.0979358 0 0)
(0.097947 0 0)
(0.0979465 0 0)
(0.0979346 0 0)
(0.0979512 0 0)
(0.0979419 0 0)
(0.0979458 0 0)
(0.0979447 0 0)
(0.0979358 0 0)
(0.0979476 0 0)
(0.0979468 0 0)
(0.0979349 0 0)
(0.0979433 0 0)
(0.0979451 0 0)
(0.0979377 0 0)
(0.0979514 0 0)
(0.0979397 0 0)
(0.0979443 0 0)
(0.0979448 0 0)
(0.0979364 0 0)
(0.0979457 0 0)
(0.097945 0 0)
(0.0979401 0 0)
(0.0979413 0 0)
(0.097941 0 0)
(0.0979455 0 0)
(0.0979459 0 0)
(0.097935 0 0)
(0.0979479 0 0)
(0.097948 0 0)
(0.0979321 0 0)
(0.097943 0 0)
(0.0979469 0 0)
(0.097943 0 0)
(0.0979379 0 0)
(0.0979472 0 0)
(0.0979452 0 0)
(0.097935 0 0)
(0.0979446 0 0)
(0.0979422 0 0)
(0.0979425 0 0)
(0.0979393 0 0)
(0.0979461 0 0)
(0.0979448 0 0)
(0.0979365 0 0)
(0.0979437 0 0)
(0.0979392 0 0)
(0.0979476 0 0)
(0.0979461 0 0)
(0.0979301 0 0)
(0.0979462 0 0)
(0.0979463 0 0)
(0.0979364 0 0)
(0.097946 0 0)
(0.0979434 0 0)
(0.0979315 0 0)
(0.0979476 0 0)
(0.0979515 0 0)
(0.0979263 0 0)
(0.0979442 0 0)
(0.0979513 0 0)
(0.0979348 0 0)
(0.0979437 0 0)
(0.0979416 0 0)
(0.0979328 0 0)
(0.097947 0 0)
(0.097946 0 0)
(0.0979399 0 0)
(0.097933 0 0)
(0.0979455 0 0)
(0.0979449 0 0)
(0.0979332 0 0)
(0.097946 0 0)
(0.0979393 0 0)
(0.0979448 0 0)
(0.0979439 0 0)
(0.0979326 0 0)
(0.0979431 0 0)
(0.0979449 0 0)
(0.0979312 0 0)
(0.0979453 0 0)
(0.0979465 0 0)
(0.0979403 0 0)
(0.0979301 0 0)
(0.0979437 0 0)
(0.0979465 0 0)
(0.0979319 0 0)
(0.0979484 0 0)
(0.0979388 0 0)
(0.0979396 0 0)
(0.0979368 0 0)
(0.0979433 0 0)
(0.0979405 0 0)
(0.0979428 0 0)
(0.0979426 0 0)
(0.097931 0 0)
(0.0979439 0 0)
(0.0979487 0 0)
(0.0979294 0 0)
(0.0979454 0 0)
(0.0979433 0 0)
(0.0979308 0 0)
(0.0979455 0 0)
(0.0979442 0 0)
(0.0979342 0 0)
(0.0979416 0 0)
(0.0979433 0 0)
(0.0979355 0 0)
(0.0979356 0 0)
(0.0979457 0 0)
(0.0979453 0 0)
(0.0979307 0 0)
(0.0979398 0 0)
(0.0979403 0 0)
(0.0979435 0 0)
(0.0979434 0 0)
(0.0979321 0 0)
(0.0979415 0 0)
(0.0979399 0 0)
(0.0979339 0 0)
(0.0979457 0 0)
(0.0979418 0 0)
(0.0979333 0 0)
(0.097943 0 0)
(0.0979365 0 0)
(0.0979427 0 0)
(0.0979418 0 0)
(0.097929 0 0)
(0.0979427 0 0)
(0.0979414 0 0)
(0.0979421 0 0)
(0.09794 0 0)
(0.0979299 0 0)
(0.0979439 0 0)
(0.0979466 0 0)
(0.0979299 0 0)
(0.0979396 0 0)
(0.0979405 0 0)
(0.0979404 0 0)
(0.0979438 0 0)
(0.0979294 0 0)
(0.0979401 0 0)
(0.0979406 0 0)
(0.0979432 0 0)
(0.0979431 0 0)
(0.0979286 0 0)
(0.0979394 0 0)
(0.0979407 0 0)
(0.0979428 0 0)
(0.0979422 0 0)
(0.0979292 0 0)
(0.0979399 0 0)
(0.0979402 0 0)
(0.0979415 0 0)
(0.0979418 0 0)
(0.0979291 0 0)
(0.097942 0 0)
(0.0979443 0 0)
(0.0979318 0 0)
(0.0979366 0 0)
(0.0979416 0 0)
(0.0979412 0 0)
(0.0979311 0 0)
(0.0979412 0 0)
(0.0979462 0 0)
(0.0979255 0 0)
(0.0979428 0 0)
(0.0979459 0 0)
(0.0979263 0 0)
(0.0979435 0 0)
(0.0979433 0 0)
(0.0979304 0 0)
(0.0979385 0 0)
(0.0979406 0 0)
(0.0979364 0 0)
(0.0979398 0 0)
(0.0979362 0 0)
(0.0979379 0 0)
(0.0979383 0 0)
(0.09794 0 0)
(0.0979379 0 0)
(0.0979384 0 0)
(0.0979329 0 0)
(0.0979402 0 0)
(0.0979405 0 0)
(0.097929 0 0)
(0.0979465 0 0)
(0.0979355 0 0)
(0.0979379 0 0)
(0.0979358 0 0)
(0.0979383 0 0)
(0.0979352 0 0)
(0.0979429 0 0)
(0.0979413 0 0)
(0.0979283 0 0)
(0.0979408 0 0)
(0.0979381 0 0)
(0.0979405 0 0)
(0.0979395 0 0)
(0.0979292 0 0)
(0.0979377 0 0)
(0.0979393 0 0)
(0.0979405 0 0)
(0.0979398 0 0)
(0.0979297 0 0)
(0.097939 0 0)
(0.0979392 0 0)
(0.0979402 0 0)
(0.0979319 0 0)
(0.097937 0 0)
(0.0979355 0 0)
(0.0979408 0 0)
(0.0979409 0 0)
(0.0979303 0 0)
(0.0979394 0 0)
(0.0979373 0 0)
(0.0979385 0 0)
(0.0979353 0 0)
(0.0979379 0 0)
(0.0979328 0 0)
(0.0979399 0 0)
(0.0979397 0 0)
(0.0979301 0 0)
(0.0979412 0 0)
(0.0979412 0 0)
(0.0979281 0 0)
(0.0979381 0 0)
(0.0979424 0 0)
(0.097938 0 0)
(0.0979265 0 0)
(0.0979386 0 0)
(0.0979446 0 0)
(0.0979257 0 0)
(0.0979446 0 0)
(0.0979441 0 0)
(0.0979255 0 0)
(0.0979359 0 0)
(0.0979372 0 0)
(0.0979384 0 0)
(0.0979414 0 0)
(0.0979301 0 0)
(0.0979407 0 0)
(0.0979407 0 0)
(0.097923 0 0)
(0.0979439 0 0)
(0.0979431 0 0)
(0.097925 0 0)
(0.0979386 0 0)
(0.0979369 0 0)
(0.0979404 0 0)
(0.0979399 0 0)
(0.0979254 0 0)
(0.0979395 0 0)
(0.0979419 0 0)
(0.0979281 0 0)
(0.0979377 0 0)
(0.0979389 0 0)
(0.0979388 0 0)
(0.0979381 0 0)
(0.0979232 0 0)
(0.0979425 0 0)
(0.0979434 0 0)
(0.0979275 0 0)
(0.0979416 0 0)
(0.0979407 0 0)
(0.0979332 0 0)
(0.0979213 0 0)
(0.0979423 0 0)
(0.0979445 0 0)
(0.0979267 0 0)
(0.0979405 0 0)
(0.0979333 0 0)
(0.097941 0 0)
(0.0979389 0 0)
(0.0979267 0 0)
(0.0979392 0 0)
(0.0979357 0 0)
(0.097937 0 0)
(0.0979313 0 0)
(0.0979328 0 0)
(0.0979427 0 0)
(0.0979343 0 0)
(0.0979363 0 0)
(0.0979321 0 0)
(0.097937 0 0)
(0.0979346 0 0)
(0.0979356 0 0)
(0.0979346 0 0)
(0.0979404 0 0)
(0.09794 0 0)
(0.0979316 0 0)
(0.0979172 0 0)
(0.0979375 0 0)
(0.0979497 0 0)
(0.0979242 0 0)
(0.0979417 0 0)
(0.0979416 0 0)
(0.0979274 0 0)
(0.0979345 0 0)
(0.0979348 0 0)
(0.09794 0 0)
(0.0979405 0 0)
(0.0979232 0 0)
(0.0979372 0 0)
(0.0979444 0 0)
(0.0979376 0 0)
(0.097918 0 0)
(0.0979358 0 0)
(0.0979479 0 0)
(0.0979249 0 0)
(0.0979421 0 0)
(0.0979407 0 0)
(0.097928 0 0)
(0.097928 0 0)
(0.0979421 0 0)
(0.0979413 0 0)
(0.0979259 0 0)
(0.097936 0 0)
(0.0979388 0 0)
(0.097934 0 0)
(0.0979354 0 0)
(0.0979311 0 0)
(0.0979399 0 0)
(0.0979397 0 0)
(0.097921 0 0)
(0.0979354 0 0)
(0.0979401 0 0)
(0.0979394 0 0)
(0.0979341 0 0)
(0.0979234 0 0)
(0.0979394 0 0)
(0.0979411 0 0)
(0.097929 0 0)
(0.0979313 0 0)
(0.0979384 0 0)
(0.09794 0 0)
(0.0979274 0 0)
(0.097938 0 0)
(0.0979375 0 0)
(0.0979268 0 0)
(0.0979391 0 0)
(0.0979368 0 0)
(0.0979317 0 0)
(0.0979316 0 0)
(0.0979398 0 0)
(0.0979351 0 0)
(0.0979347 0 0)
(0.0979289 0 0)
(0.0979373 0 0)
(0.0979383 0 0)
(0.0979283 0 0)
(0.0979399 0 0)
(0.0979403 0 0)
(0.0979246 0 0)
(0.0979331 0 0)
(0.0979412 0 0)
(0.0979258 0 0)
(0.0979408 0 0)
(0.0979398 0 0)
(0.0979296 0 0)
(0.0979325 0 0)
(0.0979356 0 0)
(0.0979329 0 0)
(0.0979268 0 0)
(0.097939 0 0)
(0.097945 0 0)
(0.0979301 0 0)
(0.0979259 0 0)
(0.0979302 0 0)
(0.0979443 0 0)
(0.0979402 0 0)
(0.0979215 0 0)
(0.0979331 0 0)
(0.0979384 0 0)
(0.0979376 0 0)
(0.0979327 0 0)
(0.0979335 0 0)
(0.0979356 0 0)
(0.0979237 0 0)
(0.0979407 0 0)
(0.0979404 0 0)
(0.0979321 0 0)
(0.0979283 0 0)
(0.0979357 0 0)
(0.0979374 0 0)
(0.0979293 0 0)
(0.0979401 0 0)
(0.0979376 0 0)
(0.0979246 0 0)
(0.0979354 0 0)
(0.0979367 0 0)
(0.0979317 0 0)
(0.097935 0 0)
(0.0979308 0 0)
(0.0979367 0 0)
(0.0979368 0 0)
(0.0979309 0 0)
(0.0979347 0 0)
(0.0979334 0 0)
(0.0979362 0 0)
(0.0979334 0 0)
(0.0979357 0 0)
(0.0979282 0 0)
(0.0979369 0 0)
(0.0979361 0 0)
(0.0979274 0 0)
(0.0979423 0 0)
(0.0979391 0 0)
(0.0979181 0 0)
(0.0979358 0 0)
(0.0979444 0 0)
(0.0979267 0 0)
(0.0979363 0 0)
(0.0979326 0 0)
(0.0979347 0 0)
(0.0979272 0 0)
(0.0979375 0 0)
(0.0979404 0 0)
(0.0979369 0 0)
(0.0979283 0 0)
(0.0979233 0 0)
(0.0979397 0 0)
(0.0979362 0 0)
(0.0979367 0 0)
(0.0979359 0 0)
(0.097924 0 0)
(0.0979355 0 0)
(0.0979379 0 0)
(0.0979344 0 0)
(0.0979306 0 0)
(0.0979354 0 0)
(0.0979333 0 0)
(0.0979253 0 0)
(0.0979395 0 0)
(0.097935 0 0)
(0.0979367 0 0)
(0.0979353 0 0)
(0.0979215 0 0)
(0.097937 0 0)
(0.0979399 0 0)
(0.0979351 0 0)
(0.0979275 0 0)
(0.0979363 0 0)
(0.0979412 0 0)
(0.0979226 0 0)
(0.0979355 0 0)
(0.0979334 0 0)
(0.0979375 0 0)
(0.0979386 0 0)
(0.0979266 0 0)
(0.0979335 0 0)
(0.0979345 0 0)
(0.0979354 0 0)
(0.0979341 0 0)
(0.0979261 0 0)
(0.0979374 0 0)
(0.0979343 0 0)
(0.0979342 0 0)
(0.0979332 0 0)
(0.0979339 0 0)
(0.0979307 0 0)
(0.097936 0 0)
(0.0979346 0 0)
(0.0979301 0 0)
(0.0979381 0 0)
(0.0979302 0 0)
(0.0979384 0 0)
(0.0979384 0 0)
(0.097931 0 0)
(0.0979156 0 0)
(0.0979323 0 0)
(0.0979525 0 0)
(0.0979368 0 0)
(0.0979155 0 0)
(0.0979317 0 0)
(0.0979432 0 0)
(0.0979233 0 0)
(0.0979424 0 0)
(0.0979407 0 0)
(0.0979214 0 0)
(0.0979317 0 0)
(0.0979362 0 0)
(0.0979362 0 0)
(0.0979395 0 0)
(0.0979268 0 0)
(0.0979322 0 0)
(0.0979321 0 0)
(0.0979377 0 0)
(0.0979385 0 0)
(0.0979238 0 0)
(0.0979392 0 0)
(0.0979386 0 0)
(0.0979242 0 0)
(0.0979359 0 0)
(0.0979327 0 0)
(0.0979381 0 0)
(0.0979376 0 0)
(0.0979249 0 0)
(0.0979345 0 0)
(0.0979316 0 0)
(0.0979354 0 0)
(0.097937 0 0)
(0.0979354 0 0)
(0.0979335 0 0)
(0.0979231 0 0)
(0.0979349 0 0)
(0.0979388 0 0)
(0.0979342 0 0)
(0.0979344 0 0)
(0.0979338 0 0)
)
;

boundaryField
{
    fixedWall
    {
        type            fixedValue;
        value           uniform (0 0 0);
    }
    outlet
    {
        type            pressureInletOutletVelocity;
        value           uniform (0.0979338 0 0);
    }
    defaultFaces
    {
        type            empty;
    }
}


// ************************************************************************* //
