/*--------------------------------*- C++ -*----------------------------------*\
| =========                 |                                                 |
| \\      /  F ield         | OpenFOAM: The Open Source CFD Toolbox           |
|  \\    /   O peration     | Version:  2406                                  |
|   \\  /    A nd           | Website:  www.openfoam.com                      |
|    \\/     M anipulation  |                                                 |
\*---------------------------------------------------------------------------*/
FoamFile
{
    version     2.0;
    format      ascii;
    arch        "LSB;label=32;scalar=64";
    class       volVectorField;
    location    "12.5";
    object      U;
}
// * * * * * * * * * * * * * * * * * * * * * * * * * * * * * * * * * * * * * //

dimensions      [0 1 -1 0 0 0 0];

internalField   nonuniform List<vector> 
1000
(
(-6.92862e-07 0 0)
(-3.32874e-06 0 0)
(-8.58761e-06 0 0)
(-1.58855e-05 0 0)
(-2.47752e-05 0 0)
(-3.49857e-05 0 0)
(-4.63259e-05 0 0)
(-5.86362e-05 0 0)
(-7.17858e-05 0 0)
(-8.56594e-05 0 0)
(-0.000100164 0 0)
(-0.000115217 0 0)
(-0.000130746 0 0)
(-0.000146693 0 0)
(-0.000163002 0 0)
(-0.000179628 0 0)
(-0.000196527 0 0)
(-0.000213663 0 0)
(-0.000231001 0 0)
(-0.000248512 0 0)
(-0.000266167 0 0)
(-0.000283943 0 0)
(-0.000301817 0 0)
(-0.000319767 0 0)
(-0.000337776 0 0)
(-0.000355824 0 0)
(-0.000373896 0 0)
(-0.000391978 0 0)
(-0.000410054 0 0)
(-0.000428113 0 0)
(-0.000446143 0 0)
(-0.000464131 0 0)
(-0.000482069 0 0)
(-0.000499945 0 0)
(-0.000517753 0 0)
(-0.000535481 0 0)
(-0.000553123 0 0)
(-0.000570671 0 0)
(-0.000588118 0 0)
(-0.000605458 0 0)
(-0.000622684 0 0)
(-0.000639791 0 0)
(-0.000656772 0 0)
(-0.000673624 0 0)
(-0.000690341 0 0)
(-0.000706919 0 0)
(-0.000723354 0 0)
(-0.00073964 0 0)
(-0.000755776 0 0)
(-0.000771756 0 0)
(-0.00078758 0 0)
(-0.000803243 0 0)
(-0.000818742 0 0)
(-0.000834076 0 0)
(-0.00084924 0 0)
(-0.000864235 0 0)
(-0.000879057 0 0)
(-0.000893705 0 0)
(-0.000908176 0 0)
(-0.000922471 0 0)
(-0.000936585 0 0)
(-0.00095052 0 0)
(-0.000964274 0 0)
(-0.000977846 0 0)
(-0.000991235 0 0)
(-0.00100444 0 0)
(-0.00101746 0 0)
(-0.0010303 0 0)
(-0.00104295 0 0)
(-0.00105542 0 0)
(-0.0010677 0 0)
(-0.0010798 0 0)
(-0.00109171 0 0)
(-0.00110344 0 0)
(-0.00111498 0 0)
(-0.00112634 0 0)
(-0.00113751 0 0)
(-0.00114851 0 0)
(-0.00115932 0 0)
(-0.00116995 0 0)
(-0.00118039 0 0)
(-0.00119066 0 0)
(-0.00120075 0 0)
(-0.00121066 0 0)
(-0.00122039 0 0)
(-0.00122995 0 0)
(-0.00123933 0 0)
(-0.00124854 0 0)
(-0.00125758 0 0)
(-0.00126645 0 0)
(-0.00127515 0 0)
(-0.00128368 0 0)
(-0.00129204 0 0)
(-0.00130024 0 0)
(-0.00130827 0 0)
(-0.00131615 0 0)
(-0.00132386 0 0)
(-0.00133141 0 0)
(-0.00133881 0 0)
(-0.00134605 0 0)
(-0.00135314 0 0)
(-0.00136008 0 0)
(-0.00136687 0 0)
(-0.00137351 0 0)
(-0.00138001 0 0)
(-0.00138636 0 0)
(-0.00139257 0 0)
(-0.00139864 0 0)
(-0.00140457 0 0)
(-0.00141036 0 0)
(-0.00141602 0 0)
(-0.00142155 0 0)
(-0.00142695 0 0)
(-0.00143222 0 0)
(-0.00143736 0 0)
(-0.00144238 0 0)
(-0.00144727 0 0)
(-0.00145205 0 0)
(-0.00145671 0 0)
(-0.00146125 0 0)
(-0.00146567 0 0)
(-0.00146998 0 0)
(-0.00147419 0 0)
(-0.00147828 0 0)
(-0.00148227 0 0)
(-0.00148615 0 0)
(-0.00148993 0 0)
(-0.00149361 0 0)
(-0.00149719 0 0)
(-0.00150067 0 0)
(-0.00150406 0 0)
(-0.00150736 0 0)
(-0.00151056 0 0)
(-0.00151368 0 0)
(-0.0015167 0 0)
(-0.00151965 0 0)
(-0.0015225 0 0)
(-0.00152528 0 0)
(-0.00152798 0 0)
(-0.00153059 0 0)
(-0.00153313 0 0)
(-0.0015356 0 0)
(-0.00153799 0 0)
(-0.00154031 0 0)
(-0.00154256 0 0)
(-0.00154475 0 0)
(-0.00154686 0 0)
(-0.00154891 0 0)
(-0.0015509 0 0)
(-0.00155283 0 0)
(-0.00155469 0 0)
(-0.0015565 0 0)
(-0.00155825 0 0)
(-0.00155994 0 0)
(-0.00156158 0 0)
(-0.00156316 0 0)
(-0.0015647 0 0)
(-0.00156618 0 0)
(-0.00156761 0 0)
(-0.001569 0 0)
(-0.00157034 0 0)
(-0.00157164 0 0)
(-0.00157289 0 0)
(-0.0015741 0 0)
(-0.00157527 0 0)
(-0.00157639 0 0)
(-0.00157748 0 0)
(-0.00157853 0 0)
(-0.00157954 0 0)
(-0.00158052 0 0)
(-0.00158147 0 0)
(-0.00158238 0 0)
(-0.00158325 0 0)
(-0.0015841 0 0)
(-0.00158491 0 0)
(-0.00158569 0 0)
(-0.00158644 0 0)
(-0.00158716 0 0)
(-0.00158785 0 0)
(-0.00158852 0 0)
(-0.00158917 0 0)
(-0.0015898 0 0)
(-0.0015904 0 0)
(-0.00159098 0 0)
(-0.00159154 0 0)
(-0.00159207 0 0)
(-0.00159259 0 0)
(-0.00159308 0 0)
(-0.00159356 0 0)
(-0.00159401 0 0)
(-0.00159445 0 0)
(-0.00159487 0 0)
(-0.00159528 0 0)
(-0.00159566 0 0)
(-0.00159603 0 0)
(-0.00159639 0 0)
(-0.00159674 0 0)
(-0.00159706 0 0)
(-0.00159738 0 0)
(-0.00159768 0 0)
(-0.00159797 0 0)
(-0.00159825 0 0)
(-0.00159851 0 0)
(-0.00159876 0 0)
(-0.00159901 0 0)
(-0.00159924 0 0)
(-0.00159946 0 0)
(-0.00159967 0 0)
(-0.00159988 0 0)
(-0.00160007 0 0)
(-0.00160026 0 0)
(-0.00160044 0 0)
(-0.0016006 0 0)
(-0.00160077 0 0)
(-0.00160092 0 0)
(-0.00160107 0 0)
(-0.00160121 0 0)
(-0.00160135 0 0)
(-0.00160147 0 0)
(-0.0016016 0 0)
(-0.00160171 0 0)
(-0.00160182 0 0)
(-0.00160193 0 0)
(-0.00160203 0 0)
(-0.00160213 0 0)
(-0.00160222 0 0)
(-0.00160231 0 0)
(-0.00160239 0 0)
(-0.00160247 0 0)
(-0.00160254 0 0)
(-0.00160262 0 0)
(-0.00160268 0 0)
(-0.00160275 0 0)
(-0.00160281 0 0)
(-0.00160287 0 0)
(-0.00160292 0 0)
(-0.00160298 0 0)
(-0.00160302 0 0)
(-0.00160307 0 0)
(-0.00160312 0 0)
(-0.00160316 0 0)
(-0.0016032 0 0)
(-0.00160324 0 0)
(-0.00160327 0 0)
(-0.00160331 0 0)
(-0.00160334 0 0)
(-0.00160337 0 0)
(-0.0016034 0 0)
(-0.00160343 0 0)
(-0.00160345 0 0)
(-0.00160347 0 0)
(-0.0016035 0 0)
(-0.00160352 0 0)
(-0.00160354 0 0)
(-0.00160356 0 0)
(-0.00160357 0 0)
(-0.00160359 0 0)
(-0.00160361 0 0)
(-0.00160362 0 0)
(-0.00160364 0 0)
(-0.00160365 0 0)
(-0.00160366 0 0)
(-0.00160367 0 0)
(-0.00160368 0 0)
(-0.00160369 0 0)
(-0.0016037 0 0)
(-0.00160371 0 0)
(-0.00160372 0 0)
(-0.00160373 0 0)
(-0.00160373 0 0)
(-0.00160374 0 0)
(-0.00160374 0 0)
(-0.00160375 0 0)
(-0.00160375 0 0)
(-0.00160376 0 0)
(-0.00160376 0 0)
(-0.00160377 0 0)
(-0.00160377 0 0)
(-0.00160377 0 0)
(-0.00160378 0 0)
(-0.00160378 0 0)
(-0.00160378 0 0)
(-0.00160378 0 0)
(-0.00160378 0 0)
(-0.00160379 0 0)
(-0.00160379 0 0)
(-0.00160379 0 0)
(-0.00160379 0 0)
(-0.00160379 0 0)
(-0.00160379 0 0)
(-0.00160379 0 0)
(-0.00160379 0 0)
(-0.00160379 0 0)
(-0.00160379 0 0)
(-0.00160379 0 0)
(-0.00160379 0 0)
(-0.00160379 0 0)
(-0.00160379 0 0)
(-0.00160379 0 0)
(-0.00160379 0 0)
(-0.00160379 0 0)
(-0.00160379 0 0)
(-0.00160379 0 0)
(-0.00160378 0 0)
(-0.00160379 0 0)
(-0.00160379 0 0)
(-0.00160378 0 0)
(-0.00160378 0 0)
(-0.00160378 0 0)
(-0.00160378 0 0)
(-0.00160378 0 0)
(-0.00160378 0 0)
(-0.00160378 0 0)
(-0.00160378 0 0)
(-0.00160377 0 0)
(-0.00160378 0 0)
(-0.00160377 0 0)
(-0.00160378 0 0)
(-0.00160377 0 0)
(-0.00160377 0 0)
(-0.00160377 0 0)
(-0.00160377 0 0)
(-0.00160377 0 0)
(-0.00160377 0 0)
(-0.00160377 0 0)
(-0.00160376 0 0)
(-0.00160377 0 0)
(-0.00160376 0 0)
(-0.00160376 0 0)
(-0.00160376 0 0)
(-0.00160376 0 0)
(-0.00160376 0 0)
(-0.00160376 0 0)
(-0.00160376 0 0)
(-0.00160376 0 0)
(-0.00160376 0 0)
(-0.00160376 0 0)
(-0.00160376 0 0)
(-0.00160375 0 0)
(-0.00160376 0 0)
(-0.00160375 0 0)
(-0.00160376 0 0)
(-0.00160375 0 0)
(-0.00160375 0 0)
(-0.00160375 0 0)
(-0.00160375 0 0)
(-0.00160375 0 0)
(-0.00160375 0 0)
(-0.00160375 0 0)
(-0.00160375 0 0)
(-0.00160375 0 0)
(-0.00160375 0 0)
(-0.00160375 0 0)
(-0.00160375 0 0)
(-0.00160375 0 0)
(-0.00160375 0 0)
(-0.00160375 0 0)
(-0.00160375 0 0)
(-0.00160375 0 0)
(-0.00160375 0 0)
(-0.00160375 0 0)
(-0.00160375 0 0)
(-0.00160375 0 0)
(-0.00160375 0 0)
(-0.00160375 0 0)
(-0.00160375 0 0)
(-0.00160375 0 0)
(-0.00160375 0 0)
(-0.00160375 0 0)
(-0.00160375 0 0)
(-0.00160375 0 0)
(-0.00160375 0 0)
(-0.00160375 0 0)
(-0.00160375 0 0)
(-0.00160375 0 0)
(-0.00160375 0 0)
(-0.00160375 0 0)
(-0.00160375 0 0)
(-0.00160375 0 0)
(-0.00160375 0 0)
(-0.00160375 0 0)
(-0.00160376 0 0)
(-0.00160375 0 0)
(-0.00160376 0 0)
(-0.00160376 0 0)
(-0.00160376 0 0)
(-0.00160376 0 0)
(-0.00160376 0 0)
(-0.00160376 0 0)
(-0.00160376 0 0)
(-0.00160376 0 0)
(-0.00160376 0 0)
(-0.00160376 0 0)
(-0.00160376 0 0)
(-0.00160376 0 0)
(-0.00160376 0 0)
(-0.00160376 0 0)
(-0.00160376 0 0)
(-0.00160376 0 0)
(-0.00160376 0 0)
(-0.00160376 0 0)
(-0.00160376 0 0)
(-0.00160377 0 0)
(-0.00160376 0 0)
(-0.00160376 0 0)
(-0.00160377 0 0)
(-0.00160377 0 0)
(-0.00160377 0 0)
(-0.00160377 0 0)
(-0.00160377 0 0)
(-0.00160377 0 0)
(-0.00160377 0 0)
(-0.00160377 0 0)
(-0.00160377 0 0)
(-0.00160377 0 0)
(-0.00160377 0 0)
(-0.00160377 0 0)
(-0.00160377 0 0)
(-0.00160377 0 0)
(-0.00160377 0 0)
(-0.00160377 0 0)
(-0.00160377 0 0)
(-0.00160377 0 0)
(-0.00160377 0 0)
(-0.00160377 0 0)
(-0.00160377 0 0)
(-0.00160377 0 0)
(-0.00160377 0 0)
(-0.00160377 0 0)
(-0.00160377 0 0)
(-0.00160377 0 0)
(-0.00160377 0 0)
(-0.00160377 0 0)
(-0.00160377 0 0)
(-0.00160377 0 0)
(-0.00160377 0 0)
(-0.00160377 0 0)
(-0.00160377 0 0)
(-0.00160377 0 0)
(-0.00160377 0 0)
(-0.00160378 0 0)
(-0.00160377 0 0)
(-0.00160378 0 0)
(-0.00160377 0 0)
(-0.00160378 0 0)
(-0.00160378 0 0)
(-0.00160378 0 0)
(-0.00160378 0 0)
(-0.00160378 0 0)
(-0.00160378 0 0)
(-0.00160378 0 0)
(-0.00160378 0 0)
(-0.00160378 0 0)
(-0.00160378 0 0)
(-0.00160378 0 0)
(-0.00160378 0 0)
(-0.00160378 0 0)
(-0.00160378 0 0)
(-0.00160378 0 0)
(-0.00160378 0 0)
(-0.00160378 0 0)
(-0.00160378 0 0)
(-0.00160378 0 0)
(-0.00160378 0 0)
(-0.00160378 0 0)
(-0.00160378 0 0)
(-0.00160378 0 0)
(-0.00160378 0 0)
(-0.00160378 0 0)
(-0.00160378 0 0)
(-0.00160378 0 0)
(-0.00160378 0 0)
(-0.00160378 0 0)
(-0.00160378 0 0)
(-0.00160378 0 0)
(-0.00160378 0 0)
(-0.00160378 0 0)
(-0.00160378 0 0)
(-0.00160378 0 0)
(-0.00160378 0 0)
(-0.00160378 0 0)
(-0.00160378 0 0)
(-0.00160378 0 0)
(-0.00160378 0 0)
(-0.00160378 0 0)
(-0.00160378 0 0)
(-0.00160378 0 0)
(-0.00160378 0 0)
(-0.00160378 0 0)
(-0.00160378 0 0)
(-0.00160378 0 0)
(-0.00160378 0 0)
(-0.00160378 0 0)
(-0.00160378 0 0)
(-0.00160378 0 0)
(-0.00160378 0 0)
(-0.00160378 0 0)
(-0.00160378 0 0)
(-0.00160378 0 0)
(-0.00160378 0 0)
(-0.00160378 0 0)
(-0.00160378 0 0)
(-0.00160378 0 0)
(-0.00160378 0 0)
(-0.00160378 0 0)
(-0.00160378 0 0)
(-0.00160378 0 0)
(-0.00160378 0 0)
(-0.00160378 0 0)
(-0.00160378 0 0)
(-0.00160378 0 0)
(-0.00160378 0 0)
(-0.00160378 0 0)
(-0.00160378 0 0)
(-0.00160378 0 0)
(-0.00160378 0 0)
(-0.00160378 0 0)
(-0.00160378 0 0)
(-0.00160378 0 0)
(-0.00160377 0 0)
(-0.00160378 0 0)
(-0.00160378 0 0)
(-0.00160377 0 0)
(-0.00160378 0 0)
(-0.00160378 0 0)
(-0.00160378 0 0)
(-0.00160378 0 0)
(-0.00160378 0 0)
(-0.00160377 0 0)
(-0.00160378 0 0)
(-0.00160378 0 0)
(-0.00160377 0 0)
(-0.00160378 0 0)
(-0.00160377 0 0)
(-0.00160377 0 0)
(-0.00160377 0 0)
(-0.00160377 0 0)
(-0.00160377 0 0)
(-0.00160377 0 0)
(-0.00160377 0 0)
(-0.00160377 0 0)
(-0.00160377 0 0)
(-0.00160377 0 0)
(-0.00160377 0 0)
(-0.00160377 0 0)
(-0.00160377 0 0)
(-0.00160377 0 0)
(-0.00160377 0 0)
(-0.00160377 0 0)
(-0.00160377 0 0)
(-0.00160377 0 0)
(-0.00160377 0 0)
(-0.00160377 0 0)
(-0.00160377 0 0)
(-0.00160377 0 0)
(-0.00160377 0 0)
(-0.00160377 0 0)
(-0.00160377 0 0)
(-0.00160377 0 0)
(-0.00160377 0 0)
(-0.00160377 0 0)
(-0.00160377 0 0)
(-0.00160377 0 0)
(-0.00160377 0 0)
(-0.00160377 0 0)
(-0.00160377 0 0)
(-0.00160377 0 0)
(-0.00160377 0 0)
(-0.00160377 0 0)
(-0.00160377 0 0)
(-0.00160377 0 0)
(-0.00160377 0 0)
(-0.00160377 0 0)
(-0.00160377 0 0)
(-0.00160377 0 0)
(-0.00160377 0 0)
(-0.00160377 0 0)
(-0.00160377 0 0)
(-0.00160377 0 0)
(-0.00160377 0 0)
(-0.00160377 0 0)
(-0.00160377 0 0)
(-0.00160377 0 0)
(-0.00160377 0 0)
(-0.00160377 0 0)
(-0.00160377 0 0)
(-0.00160377 0 0)
(-0.00160377 0 0)
(-0.00160377 0 0)
(-0.00160377 0 0)
(-0.00160377 0 0)
(-0.00160377 0 0)
(-0.00160377 0 0)
(-0.00160377 0 0)
(-0.00160377 0 0)
(-0.00160377 0 0)
(-0.00160377 0 0)
(-0.00160377 0 0)
(-0.00160377 0 0)
(-0.00160377 0 0)
(-0.00160377 0 0)
(-0.00160377 0 0)
(-0.00160377 0 0)
(-0.00160377 0 0)
(-0.00160377 0 0)
(-0.00160377 0 0)
(-0.00160377 0 0)
(-0.00160377 0 0)
(-0.00160377 0 0)
(-0.00160377 0 0)
(-0.00160377 0 0)
(-0.00160377 0 0)
(-0.00160377 0 0)
(-0.00160377 0 0)
(-0.00160377 0 0)
(-0.00160377 0 0)
(-0.00160377 0 0)
(-0.00160377 0 0)
(-0.00160377 0 0)
(-0.00160377 0 0)
(-0.00160377 0 0)
(-0.00160377 0 0)
(-0.00160377 0 0)
(-0.00160377 0 0)
(-0.00160377 0 0)
(-0.00160377 0 0)
(-0.00160377 0 0)
(-0.00160377 0 0)
(-0.00160377 0 0)
(-0.00160377 0 0)
(-0.00160377 0 0)
(-0.00160377 0 0)
(-0.00160377 0 0)
(-0.00160377 0 0)
(-0.00160377 0 0)
(-0.00160377 0 0)
(-0.00160377 0 0)
(-0.00160377 0 0)
(-0.00160377 0 0)
(-0.00160377 0 0)
(-0.00160377 0 0)
(-0.00160377 0 0)
(-0.00160377 0 0)
(-0.00160377 0 0)
(-0.00160377 0 0)
(-0.00160377 0 0)
(-0.00160377 0 0)
(-0.00160377 0 0)
(-0.00160377 0 0)
(-0.00160377 0 0)
(-0.00160377 0 0)
(-0.00160377 0 0)
(-0.00160377 0 0)
(-0.00160377 0 0)
(-0.00160377 0 0)
(-0.00160377 0 0)
(-0.00160377 0 0)
(-0.00160377 0 0)
(-0.00160377 0 0)
(-0.00160376 0 0)
(-0.00160377 0 0)
(-0.00160376 0 0)
(-0.00160377 0 0)
(-0.00160377 0 0)
(-0.00160376 0 0)
(-0.00160377 0 0)
(-0.00160376 0 0)
(-0.00160377 0 0)
(-0.00160376 0 0)
(-0.00160377 0 0)
(-0.00160376 0 0)
(-0.00160376 0 0)
(-0.00160376 0 0)
(-0.00160376 0 0)
(-0.00160376 0 0)
(-0.00160376 0 0)
(-0.00160376 0 0)
(-0.00160376 0 0)
(-0.00160376 0 0)
(-0.00160376 0 0)
(-0.00160376 0 0)
(-0.00160376 0 0)
(-0.00160376 0 0)
(-0.00160376 0 0)
(-0.00160376 0 0)
(-0.00160376 0 0)
(-0.00160376 0 0)
(-0.00160376 0 0)
(-0.00160376 0 0)
(-0.00160375 0 0)
(-0.00160376 0 0)
(-0.00160375 0 0)
(-0.00160376 0 0)
(-0.00160376 0 0)
(-0.00160375 0 0)
(-0.00160376 0 0)
(-0.00160375 0 0)
(-0.00160375 0 0)
(-0.00160375 0 0)
(-0.00160375 0 0)
(-0.00160376 0 0)
(-0.00160375 0 0)
(-0.00160375 0 0)
(-0.00160375 0 0)
(-0.00160375 0 0)
(-0.00160375 0 0)
(-0.00160375 0 0)
(-0.00160375 0 0)
(-0.00160375 0 0)
(-0.00160375 0 0)
(-0.00160375 0 0)
(-0.00160375 0 0)
(-0.00160375 0 0)
(-0.00160375 0 0)
(-0.00160375 0 0)
(-0.00160375 0 0)
(-0.00160375 0 0)
(-0.00160375 0 0)
(-0.00160375 0 0)
(-0.00160375 0 0)
(-0.00160376 0 0)
(-0.00160375 0 0)
(-0.00160376 0 0)
(-0.00160376 0 0)
(-0.00160376 0 0)
(-0.00160376 0 0)
(-0.00160376 0 0)
(-0.00160376 0 0)
(-0.00160376 0 0)
(-0.00160376 0 0)
(-0.00160376 0 0)
(-0.00160376 0 0)
(-0.00160377 0 0)
(-0.00160377 0 0)
(-0.00160377 0 0)
(-0.00160377 0 0)
(-0.00160377 0 0)
(-0.00160377 0 0)
(-0.00160378 0 0)
(-0.00160378 0 0)
(-0.00160378 0 0)
(-0.00160378 0 0)
(-0.00160379 0 0)
(-0.00160379 0 0)
(-0.00160379 0 0)
(-0.0016038 0 0)
(-0.0016038 0 0)
(-0.0016038 0 0)
(-0.00160381 0 0)
(-0.00160381 0 0)
(-0.00160382 0 0)
(-0.00160382 0 0)
(-0.00160383 0 0)
(-0.00160384 0 0)
(-0.00160384 0 0)
(-0.00160385 0 0)
(-0.00160386 0 0)
(-0.00160387 0 0)
(-0.00160387 0 0)
(-0.00160388 0 0)
(-0.00160389 0 0)
(-0.00160391 0 0)
(-0.00160392 0 0)
(-0.00160393 0 0)
(-0.00160394 0 0)
(-0.00160396 0 0)
(-0.00160397 0 0)
(-0.00160399 0 0)
(-0.00160401 0 0)
(-0.00160403 0 0)
(-0.00160405 0 0)
(-0.00160407 0 0)
(-0.0016041 0 0)
(-0.00160412 0 0)
(-0.00160415 0 0)
(-0.00160418 0 0)
(-0.00160421 0 0)
(-0.00160425 0 0)
(-0.00160428 0 0)
(-0.00160432 0 0)
(-0.00160436 0 0)
(-0.00160441 0 0)
(-0.00160445 0 0)
(-0.00160451 0 0)
(-0.00160456 0 0)
(-0.00160462 0 0)
(-0.00160468 0 0)
(-0.00160475 0 0)
(-0.00160482 0 0)
(-0.00160489 0 0)
(-0.00160497 0 0)
(-0.00160506 0 0)
(-0.00160515 0 0)
(-0.00160525 0 0)
(-0.00160536 0 0)
(-0.00160547 0 0)
(-0.00160559 0 0)
(-0.00160571 0 0)
(-0.00160585 0 0)
(-0.00160599 0 0)
(-0.00160614 0 0)
(-0.00160631 0 0)
(-0.00160648 0 0)
(-0.00160666 0 0)
(-0.00160686 0 0)
(-0.00160707 0 0)
(-0.00160729 0 0)
(-0.00160752 0 0)
(-0.00160777 0 0)
(-0.00160803 0 0)
(-0.00160831 0 0)
(-0.00160861 0 0)
(-0.00160892 0 0)
(-0.00160925 0 0)
(-0.0016096 0 0)
(-0.00160997 0 0)
(-0.00161037 0 0)
(-0.00161078 0 0)
(-0.00161122 0 0)
(-0.00161169 0 0)
(-0.00161218 0 0)
(-0.00161269 0 0)
(-0.00161324 0 0)
(-0.00161382 0 0)
(-0.00161443 0 0)
(-0.00161507 0 0)
(-0.00161574 0 0)
(-0.00161646 0 0)
(-0.00161721 0 0)
(-0.001618 0 0)
(-0.00161883 0 0)
(-0.00161971 0 0)
(-0.00162063 0 0)
(-0.00162159 0 0)
(-0.00162261 0 0)
(-0.00162368 0 0)
(-0.0016248 0 0)
(-0.00162598 0 0)
(-0.00162721 0 0)
(-0.00162851 0 0)
(-0.00162987 0 0)
(-0.00163129 0 0)
(-0.00163278 0 0)
(-0.00163435 0 0)
(-0.00163598 0 0)
(-0.00163769 0 0)
(-0.00163948 0 0)
(-0.00164135 0 0)
(-0.00164331 0 0)
(-0.00164535 0 0)
(-0.00164749 0 0)
(-0.00164972 0 0)
(-0.00165204 0 0)
(-0.00165447 0 0)
(-0.001657 0 0)
(-0.00165964 0 0)
(-0.00166238 0 0)
(-0.00166524 0 0)
(-0.00166822 0 0)
(-0.00167132 0 0)
(-0.00167455 0 0)
(-0.0016779 0 0)
(-0.00168139 0 0)
(-0.00168501 0 0)
(-0.00168877 0 0)
(-0.00169268 0 0)
(-0.00169673 0 0)
(-0.00170093 0 0)
(-0.00170529 0 0)
(-0.00170981 0 0)
(-0.00171449 0 0)
(-0.00171934 0 0)
(-0.00172436 0 0)
(-0.00172955 0 0)
(-0.00173493 0 0)
(-0.00174048 0 0)
(-0.00174623 0 0)
(-0.00175216 0 0)
(-0.00175828 0 0)
(-0.00176461 0 0)
(-0.00177113 0 0)
(-0.00177786 0 0)
(-0.0017848 0 0)
(-0.00179195 0 0)
(-0.00179931 0 0)
(-0.0018069 0 0)
(-0.0018147 0 0)
(-0.00182273 0 0)
(-0.00183099 0 0)
(-0.00183948 0 0)
(-0.0018482 0 0)
(-0.00185715 0 0)
(-0.00186635 0 0)
(-0.00187578 0 0)
(-0.00188545 0 0)
(-0.00189537 0 0)
(-0.00190553 0 0)
(-0.00191594 0 0)
(-0.0019266 0 0)
(-0.00193751 0 0)
(-0.00194866 0 0)
(-0.00196006 0 0)
(-0.00197172 0 0)
(-0.00198362 0 0)
(-0.00199577 0 0)
(-0.00200817 0 0)
(-0.00202081 0 0)
(-0.0020337 0 0)
(-0.00204684 0 0)
(-0.00206021 0 0)
(-0.00207382 0 0)
(-0.00208767 0 0)
(-0.00210175 0 0)
(-0.00211605 0 0)
(-0.00213058 0 0)
(-0.00214533 0 0)
(-0.0021603 0 0)
(-0.00217547 0 0)
(-0.00219084 0 0)
(-0.00220641 0 0)
(-0.00222217 0 0)
(-0.0022381 0 0)
(-0.00225421 0 0)
(-0.00227048 0 0)
(-0.00228691 0 0)
(-0.00230348 0 0)
(-0.00232018 0 0)
(-0.002337 0 0)
(-0.00235393 0 0)
(-0.00237096 0 0)
(-0.00238808 0 0)
(-0.00240526 0 0)
(-0.0024225 0 0)
(-0.00243977 0 0)
(-0.00245707 0 0)
(-0.00247438 0 0)
(-0.00249168 0 0)
(-0.00250894 0 0)
(-0.00252616 0 0)
(-0.00254331 0 0)
(-0.00256036 0 0)
(-0.0025773 0 0)
(-0.00259411 0 0)
(-0.00261076 0 0)
(-0.00262722 0 0)
(-0.00264347 0 0)
(-0.00265948 0 0)
(-0.00267522 0 0)
(-0.00269067 0 0)
(-0.00270579 0 0)
(-0.00272056 0 0)
(-0.00273493 0 0)
(-0.00274888 0 0)
(-0.00276237 0 0)
(-0.00277536 0 0)
(-0.00278782 0 0)
(-0.00279972 0 0)
(-0.002811 0 0)
(-0.00282163 0 0)
(-0.00283159 0 0)
(-0.00284087 0 0)
(-0.00284931 0 0)
(-0.00285677 0 0)
(-0.0028632 0 0)
(-0.0028686 0 0)
(-0.002873 0 0)
(-0.00287636 0 0)
(-0.00287858 0 0)
(-0.00287958 0 0)
(-0.00287931 0 0)
(-0.00287765 0 0)
(-0.00287455 0 0)
(-0.00286991 0 0)
(-0.00286364 0 0)
(-0.00285565 0 0)
(-0.00284584 0 0)
(-0.00283412 0 0)
(-0.00282037 0 0)
(-0.0028045 0 0)
(-0.00278638 0 0)
(-0.00276591 0 0)
(-0.00274297 0 0)
(-0.00271743 0 0)
(-0.00268917 0 0)
(-0.00265806 0 0)
(-0.00262397 0 0)
(-0.00258679 0 0)
(-0.00254639 0 0)
(-0.00250264 0 0)
(-0.00245544 0 0)
(-0.00240468 0 0)
(-0.00235027 0 0)
(-0.00229212 0 0)
(-0.00223015 0 0)
(-0.00216445 0 0)
(-0.00209526 0 0)
(-0.00202261 0 0)
(-0.00194368 0 0)
(-0.00185225 0 0)
(-0.00176236 0 0)
)
;

boundaryField
{
    fixedWall
    {
        type            fixedValue;
        value           uniform (0 0 0);
    }
    outlet
    {
        type            pressureInletOutletVelocity;
        value           uniform (-0.00176236 0 0);
    }
    defaultFaces
    {
        type            empty;
    }
}


// ************************************************************************* //
