/*--------------------------------*- C++ -*----------------------------------*\
| =========                 |                                                 |
| \\      /  F ield         | OpenFOAM: The Open Source CFD Toolbox           |
|  \\    /   O peration     | Version:  2406                                  |
|   \\  /    A nd           | Website:  www.openfoam.com                      |
|    \\/     M anipulation  |                                                 |
\*---------------------------------------------------------------------------*/
FoamFile
{
    version     2.0;
    format      ascii;
    arch        "LSB;label=32;scalar=64";
    class       volScalarField;
    location    "9.1";
    object      O2;
}
// * * * * * * * * * * * * * * * * * * * * * * * * * * * * * * * * * * * * * //

dimensions      [0 0 0 0 0 0 0];

internalField   nonuniform List<scalar> 
1000
(
1.19971e-06
1.19756e-06
1.19366e-06
1.18832e-06
1.18175e-06
1.17411e-06
1.16554e-06
1.15615e-06
1.14604e-06
1.13527e-06
1.12391e-06
1.11204e-06
1.09969e-06
1.08691e-06
1.07374e-06
1.06024e-06
1.04642e-06
1.03232e-06
1.01797e-06
1.00341e-06
9.8865e-07
9.73722e-07
9.5865e-07
9.43455e-07
9.28159e-07
9.12785e-07
8.9735e-07
8.81876e-07
8.66382e-07
8.50885e-07
8.35404e-07
8.19957e-07
8.04561e-07
7.89232e-07
7.73987e-07
7.58842e-07
7.43813e-07
7.28913e-07
7.14158e-07
6.99561e-07
6.85135e-07
6.70893e-07
6.56846e-07
6.43006e-07
6.29383e-07
6.15986e-07
6.02825e-07
5.89906e-07
5.77239e-07
5.64828e-07
5.5268e-07
5.408e-07
5.29191e-07
5.17857e-07
5.06801e-07
4.96024e-07
4.85528e-07
4.75313e-07
4.65379e-07
4.55726e-07
4.46352e-07
4.37257e-07
4.28436e-07
4.19888e-07
4.11611e-07
4.03599e-07
3.9585e-07
3.8836e-07
3.81123e-07
3.74137e-07
3.67395e-07
3.60892e-07
3.54625e-07
3.48586e-07
3.42771e-07
3.37175e-07
3.31792e-07
3.26616e-07
3.21642e-07
3.16863e-07
3.12275e-07
3.07872e-07
3.03649e-07
2.99599e-07
2.95718e-07
2.91999e-07
2.88439e-07
2.85031e-07
2.8177e-07
2.78652e-07
2.75671e-07
2.72823e-07
2.70103e-07
2.67506e-07
2.65027e-07
2.62664e-07
2.6041e-07
2.58263e-07
2.56217e-07
2.54269e-07
2.52416e-07
2.50653e-07
2.48978e-07
2.47386e-07
2.45874e-07
2.44438e-07
2.43077e-07
2.41786e-07
2.40564e-07
2.39406e-07
2.3831e-07
2.37275e-07
2.36296e-07
2.35372e-07
2.345e-07
2.33678e-07
2.32905e-07
2.32177e-07
2.31492e-07
2.3085e-07
2.30247e-07
2.29683e-07
2.29155e-07
2.28662e-07
2.28202e-07
2.27774e-07
2.27377e-07
2.27008e-07
2.26666e-07
2.26351e-07
2.26061e-07
2.25795e-07
2.25552e-07
2.2533e-07
2.25129e-07
2.24948e-07
2.24785e-07
2.2464e-07
2.24512e-07
2.244e-07
2.24304e-07
2.24222e-07
2.24154e-07
2.241e-07
2.24058e-07
2.24028e-07
2.24009e-07
2.24001e-07
2.24003e-07
2.24015e-07
2.24036e-07
2.24066e-07
2.24105e-07
2.24151e-07
2.24205e-07
2.24266e-07
2.24334e-07
2.24408e-07
2.24488e-07
2.24574e-07
2.24666e-07
2.24763e-07
2.24864e-07
2.24971e-07
2.25082e-07
2.25197e-07
2.25316e-07
2.25439e-07
2.25566e-07
2.25696e-07
2.25829e-07
2.25965e-07
2.26105e-07
2.26247e-07
2.26391e-07
2.26538e-07
2.26688e-07
2.26839e-07
2.26993e-07
2.27149e-07
2.27307e-07
2.27467e-07
2.27628e-07
2.27791e-07
2.27956e-07
2.28122e-07
2.28289e-07
2.28458e-07
2.28628e-07
2.28799e-07
2.28972e-07
2.29145e-07
2.2932e-07
2.29496e-07
2.29672e-07
2.2985e-07
2.30029e-07
2.30208e-07
2.30388e-07
2.30569e-07
2.3075e-07
2.30933e-07
2.31116e-07
2.313e-07
2.31484e-07
2.31669e-07
2.31854e-07
2.32041e-07
2.32227e-07
2.32414e-07
2.32602e-07
2.3279e-07
2.32979e-07
2.33168e-07
2.33358e-07
2.33548e-07
2.33739e-07
2.33929e-07
2.34121e-07
2.34313e-07
2.34505e-07
2.34697e-07
2.3489e-07
2.35082e-07
2.35276e-07
2.3547e-07
2.35664e-07
2.35859e-07
2.36054e-07
2.3625e-07
2.36446e-07
2.36642e-07
2.36838e-07
2.37035e-07
2.37232e-07
2.37429e-07
2.37627e-07
2.37825e-07
2.38023e-07
2.38222e-07
2.38421e-07
2.3862e-07
2.38819e-07
2.39019e-07
2.39219e-07
2.39419e-07
2.3962e-07
2.39821e-07
2.40022e-07
2.40224e-07
2.40425e-07
2.40627e-07
2.4083e-07
2.41032e-07
2.41235e-07
2.41438e-07
2.41642e-07
2.41846e-07
2.4205e-07
2.42254e-07
2.42458e-07
2.42663e-07
2.42868e-07
2.43074e-07
2.4328e-07
2.43486e-07
2.43692e-07
2.43898e-07
2.44105e-07
2.44312e-07
2.4452e-07
2.44728e-07
2.44935e-07
2.45144e-07
2.45352e-07
2.45561e-07
2.4577e-07
2.4598e-07
2.46189e-07
2.46399e-07
2.4661e-07
2.4682e-07
2.47031e-07
2.47242e-07
2.47454e-07
2.47665e-07
2.47878e-07
2.4809e-07
2.48303e-07
2.48515e-07
2.48729e-07
2.48942e-07
2.49156e-07
2.4937e-07
2.49585e-07
2.49799e-07
2.50015e-07
2.5023e-07
2.50446e-07
2.5066e-07
2.50877e-07
2.51093e-07
2.5131e-07
2.51528e-07
2.51745e-07
2.51963e-07
2.52181e-07
2.524e-07
2.52619e-07
2.52838e-07
2.53058e-07
2.53278e-07
2.53498e-07
2.53719e-07
2.53939e-07
2.54161e-07
2.54382e-07
2.54604e-07
2.54827e-07
2.55049e-07
2.55272e-07
2.55496e-07
2.55719e-07
2.55943e-07
2.56168e-07
2.56393e-07
2.56618e-07
2.56843e-07
2.57069e-07
2.57295e-07
2.57522e-07
2.57749e-07
2.57976e-07
2.58204e-07
2.58432e-07
2.5866e-07
2.58889e-07
2.59119e-07
2.59348e-07
2.59578e-07
2.59809e-07
2.60039e-07
2.60271e-07
2.60502e-07
2.60734e-07
2.60967e-07
2.612e-07
2.61433e-07
2.61666e-07
2.619e-07
2.62135e-07
2.6237e-07
2.62605e-07
2.62841e-07
2.63077e-07
2.63314e-07
2.63551e-07
2.63788e-07
2.64026e-07
2.64264e-07
2.64503e-07
2.64742e-07
2.64982e-07
2.65222e-07
2.65463e-07
2.65704e-07
2.65945e-07
2.66187e-07
2.66429e-07
2.66672e-07
2.66915e-07
2.67159e-07
2.67403e-07
2.67648e-07
2.67893e-07
2.68139e-07
2.68385e-07
2.68631e-07
2.68878e-07
2.69126e-07
2.69374e-07
2.69622e-07
2.69871e-07
2.70121e-07
2.70371e-07
2.70621e-07
2.70872e-07
2.71123e-07
2.71375e-07
2.71627e-07
2.7188e-07
2.72134e-07
2.72387e-07
2.72642e-07
2.72896e-07
2.73152e-07
2.73408e-07
2.73664e-07
2.73921e-07
2.74178e-07
2.74436e-07
2.74694e-07
2.74953e-07
2.75212e-07
2.75472e-07
2.75732e-07
2.75993e-07
2.76254e-07
2.76516e-07
2.76778e-07
2.77041e-07
2.77304e-07
2.77568e-07
2.77832e-07
2.78097e-07
2.78363e-07
2.78628e-07
2.78895e-07
2.79162e-07
2.79429e-07
2.79697e-07
2.79965e-07
2.80234e-07
2.80504e-07
2.80774e-07
2.81044e-07
2.81315e-07
2.81586e-07
2.81858e-07
2.82131e-07
2.82404e-07
2.82677e-07
2.82951e-07
2.83226e-07
2.83501e-07
2.83777e-07
2.84053e-07
2.8433e-07
2.84607e-07
2.84885e-07
2.85163e-07
2.85442e-07
2.85721e-07
2.86001e-07
2.86281e-07
2.86562e-07
2.86844e-07
2.87126e-07
2.87408e-07
2.87692e-07
2.87975e-07
2.8826e-07
2.88544e-07
2.8883e-07
2.89116e-07
2.89402e-07
2.89689e-07
2.89977e-07
2.90265e-07
2.90553e-07
2.90843e-07
2.91132e-07
2.91423e-07
2.91714e-07
2.92005e-07
2.92298e-07
2.9259e-07
2.92884e-07
2.93177e-07
2.93472e-07
2.93767e-07
2.94063e-07
2.94359e-07
2.94656e-07
2.94953e-07
2.95251e-07
2.9555e-07
2.95849e-07
2.96149e-07
2.96449e-07
2.96751e-07
2.97052e-07
2.97355e-07
2.97657e-07
2.97961e-07
2.98265e-07
2.9857e-07
2.98875e-07
2.99181e-07
2.99488e-07
2.99796e-07
3.00103e-07
3.00412e-07
3.00721e-07
3.01031e-07
3.01342e-07
3.01653e-07
3.01965e-07
3.02277e-07
3.0259e-07
3.02904e-07
3.03219e-07
3.03534e-07
3.0385e-07
3.04166e-07
3.04483e-07
3.04801e-07
3.05119e-07
3.05439e-07
3.05758e-07
3.06079e-07
3.064e-07
3.06722e-07
3.07043e-07
3.07365e-07
3.07689e-07
3.08014e-07
3.08339e-07
3.08665e-07
3.08992e-07
3.0932e-07
3.09648e-07
3.09977e-07
3.10307e-07
3.10637e-07
3.10968e-07
3.113e-07
3.11632e-07
3.11965e-07
3.12299e-07
3.12634e-07
3.12969e-07
3.13305e-07
3.13642e-07
3.1398e-07
3.14318e-07
3.14657e-07
3.14997e-07
3.15337e-07
3.15678e-07
3.1602e-07
3.16363e-07
3.16706e-07
3.1705e-07
3.17395e-07
3.17738e-07
3.18084e-07
3.18431e-07
3.18779e-07
3.19127e-07
3.19477e-07
3.19827e-07
3.20177e-07
3.20529e-07
3.20881e-07
3.21234e-07
3.21588e-07
3.21942e-07
3.22298e-07
3.22654e-07
3.2301e-07
3.23368e-07
3.23726e-07
3.24086e-07
3.24446e-07
3.24806e-07
3.25168e-07
3.2553e-07
3.25893e-07
3.26257e-07
3.26622e-07
3.26987e-07
3.27353e-07
3.2772e-07
3.28088e-07
3.28457e-07
3.28826e-07
3.29197e-07
3.29568e-07
3.2994e-07
3.30313e-07
3.30686e-07
3.31061e-07
3.31436e-07
3.31812e-07
3.32189e-07
3.32567e-07
3.32945e-07
3.33325e-07
3.33705e-07
3.34086e-07
3.34469e-07
3.34852e-07
3.35235e-07
3.3562e-07
3.36006e-07
3.36392e-07
3.36779e-07
3.37168e-07
3.37557e-07
3.37947e-07
3.38338e-07
3.3873e-07
3.39123e-07
3.39516e-07
3.39911e-07
3.40306e-07
3.40703e-07
3.411e-07
3.41499e-07
3.41898e-07
3.42298e-07
3.42699e-07
3.43102e-07
3.43505e-07
3.43909e-07
3.44314e-07
3.4472e-07
3.45127e-07
3.45535e-07
3.45944e-07
3.46354e-07
3.46765e-07
3.47177e-07
3.4759e-07
3.48003e-07
3.48415e-07
3.48831e-07
3.49248e-07
3.49666e-07
3.50085e-07
3.50505e-07
3.50927e-07
3.51349e-07
3.51772e-07
3.52196e-07
3.52621e-07
3.53048e-07
3.53475e-07
3.53903e-07
3.54333e-07
3.54764e-07
3.55195e-07
3.55628e-07
3.56062e-07
3.56497e-07
3.56933e-07
3.5737e-07
3.57808e-07
3.58247e-07
3.58688e-07
3.59129e-07
3.59572e-07
3.60015e-07
3.6046e-07
3.60906e-07
3.61353e-07
3.61801e-07
3.6225e-07
3.62701e-07
3.63152e-07
3.63605e-07
3.64059e-07
3.64514e-07
3.6497e-07
3.65427e-07
3.65886e-07
3.66345e-07
3.66806e-07
3.67268e-07
3.67731e-07
3.68195e-07
3.6866e-07
3.69127e-07
3.69594e-07
3.70063e-07
3.70533e-07
3.71005e-07
3.71477e-07
3.7195e-07
3.72425e-07
3.72901e-07
3.73378e-07
3.73857e-07
3.74336e-07
3.74817e-07
3.75299e-07
3.75782e-07
3.76265e-07
3.76747e-07
3.77234e-07
3.77722e-07
3.78211e-07
3.78701e-07
3.79192e-07
3.79685e-07
3.80179e-07
3.80674e-07
3.8117e-07
3.81668e-07
3.82166e-07
3.82666e-07
3.83168e-07
3.8367e-07
3.84174e-07
3.84679e-07
3.85185e-07
3.85693e-07
3.86201e-07
3.86712e-07
3.87223e-07
3.87736e-07
3.8825e-07
3.88765e-07
3.89281e-07
3.89799e-07
3.90319e-07
3.90839e-07
3.91361e-07
3.91884e-07
3.92409e-07
3.92935e-07
3.93462e-07
3.93991e-07
3.94521e-07
3.95053e-07
3.95586e-07
3.9612e-07
3.96656e-07
3.97193e-07
3.97732e-07
3.98272e-07
3.98814e-07
3.99357e-07
3.99901e-07
4.00448e-07
4.00995e-07
4.01544e-07
4.02095e-07
4.02647e-07
4.03201e-07
4.03757e-07
4.04314e-07
4.04872e-07
4.05433e-07
4.05995e-07
4.06558e-07
4.07123e-07
4.0769e-07
4.08258e-07
4.08828e-07
4.094e-07
4.09974e-07
4.10549e-07
4.11125e-07
4.117e-07
4.1228e-07
4.12862e-07
4.13445e-07
4.14031e-07
4.14618e-07
4.15207e-07
4.15798e-07
4.16391e-07
4.16985e-07
4.17581e-07
4.18179e-07
4.18779e-07
4.19381e-07
4.19984e-07
4.20589e-07
4.21197e-07
4.21806e-07
4.22416e-07
4.23029e-07
4.23644e-07
4.2426e-07
4.24878e-07
4.25498e-07
4.2612e-07
4.26744e-07
4.2737e-07
4.27997e-07
4.28627e-07
4.29258e-07
4.29891e-07
4.30526e-07
4.31163e-07
4.31802e-07
4.32443e-07
4.33085e-07
4.3373e-07
4.34376e-07
4.35025e-07
4.35675e-07
4.36327e-07
4.36981e-07
4.37637e-07
4.38295e-07
4.38955e-07
4.39617e-07
4.40281e-07
4.40947e-07
4.41615e-07
4.42285e-07
4.42956e-07
4.43626e-07
4.44301e-07
4.44978e-07
4.45657e-07
4.46338e-07
4.47021e-07
4.47706e-07
4.48393e-07
4.49082e-07
4.49773e-07
4.50467e-07
4.51162e-07
4.51859e-07
4.52558e-07
4.5326e-07
4.53963e-07
4.54668e-07
4.55376e-07
4.56086e-07
4.56798e-07
4.57512e-07
4.58228e-07
4.58947e-07
4.59667e-07
4.6039e-07
4.61116e-07
4.61843e-07
4.62573e-07
4.63306e-07
4.6404e-07
4.64778e-07
4.65517e-07
4.66259e-07
4.67004e-07
4.67751e-07
4.68501e-07
4.69254e-07
4.7001e-07
4.70768e-07
4.71529e-07
4.72293e-07
4.73061e-07
4.73831e-07
4.74605e-07
4.75382e-07
4.76163e-07
4.76947e-07
4.77736e-07
4.78528e-07
4.79324e-07
4.80125e-07
4.8093e-07
4.81741e-07
4.82556e-07
4.83377e-07
4.84203e-07
4.85035e-07
4.85874e-07
4.8672e-07
4.87574e-07
4.88435e-07
4.89304e-07
4.90183e-07
4.91072e-07
4.91971e-07
4.92881e-07
4.93804e-07
4.9474e-07
4.95691e-07
4.96657e-07
4.9764e-07
4.98641e-07
4.99662e-07
5.00704e-07
5.0177e-07
5.02862e-07
5.0398e-07
5.05129e-07
5.0631e-07
5.07527e-07
5.08782e-07
5.10078e-07
5.1142e-07
5.1281e-07
5.14254e-07
5.15756e-07
5.1732e-07
5.18952e-07
5.20657e-07
5.22442e-07
5.24314e-07
5.26278e-07
5.28343e-07
5.30517e-07
5.32809e-07
5.35228e-07
5.37785e-07
5.40489e-07
5.43352e-07
5.46387e-07
5.49607e-07
5.53026e-07
5.56658e-07
5.60519e-07
5.64626e-07
5.68998e-07
5.73652e-07
5.78608e-07
5.83889e-07
5.89515e-07
5.95511e-07
6.01902e-07
6.08712e-07
6.15971e-07
6.23706e-07
6.31947e-07
6.40725e-07
6.50073e-07
6.60026e-07
6.70617e-07
6.81883e-07
6.93862e-07
7.06592e-07
7.20112e-07
7.34463e-07
7.49686e-07
7.65822e-07
7.82913e-07
8.00999e-07
8.20124e-07
8.40326e-07
8.61646e-07
8.84122e-07
9.0779e-07
9.32682e-07
9.58829e-07
9.86256e-07
1.01499e-06
1.04503e-06
1.0764e-06
1.1091e-06
1.14311e-06
1.17842e-06
1.215e-06
1.2528e-06
1.29178e-06
1.33184e-06
1.37291e-06
1.41487e-06
1.4576e-06
1.50094e-06
1.54472e-06
1.58874e-06
1.63279e-06
1.67662e-06
1.71997e-06
1.76252e-06
1.80398e-06
1.84401e-06
1.88224e-06
1.9183e-06
1.95179e-06
1.98233e-06
2.00949e-06
2.03286e-06
2.05204e-06
2.06661e-06
2.07618e-06
2.08027e-06
2.0787e-06
2.07104e-06
2.05697e-06
2.03621e-06
2.0085e-06
1.97361e-06
1.93138e-06
1.88166e-06
1.82436e-06
1.75941e-06
1.68682e-06
1.60664e-06
1.51899e-06
1.42404e-06
1.32205e-06
1.21336e-06
1.09841e-06
9.77773e-07
8.52144e-07
7.22402e-07
5.8963e-07
4.55168e-07
3.20672e-07
1.8818e-07
6.01929e-08
)
;

boundaryField
{
    fixedWall
    {
        type            zeroGradient;
    }
    outlet
    {
        type            inletOutlet;
        inletValue      uniform 0;
        value           uniform 0;
    }
    defaultFaces
    {
        type            empty;
    }
}


// ************************************************************************* //
