/*--------------------------------*- C++ -*----------------------------------*\
| =========                 |                                                 |
| \\      /  F ield         | OpenFOAM: The Open Source CFD Toolbox           |
|  \\    /   O peration     | Version:  2406                                  |
|   \\  /    A nd           | Website:  www.openfoam.com                      |
|    \\/     M anipulation  |                                                 |
\*---------------------------------------------------------------------------*/
FoamFile
{
    version     2.0;
    format      ascii;
    arch        "LSB;label=32;scalar=64";
    class       surfaceScalarField;
    location    "9.1";
    object      phi;
}
// * * * * * * * * * * * * * * * * * * * * * * * * * * * * * * * * * * * * * //

dimensions      [1 0 -1 0 0 0 0];

oriented        oriented;

internalField   nonuniform List<scalar> 
999
(
-2.12736e-08
-7.01394e-08
-1.35786e-07
-2.11887e-07
-2.94544e-07
-3.8125e-07
-4.70352e-07
-5.60722e-07
-6.5159e-07
-7.42403e-07
-8.32778e-07
-9.22441e-07
-1.0112e-06
-1.09891e-06
-1.18547e-06
-1.27082e-06
-1.35492e-06
-1.43773e-06
-1.51923e-06
-1.59942e-06
-1.6783e-06
-1.75586e-06
-1.83213e-06
-1.90711e-06
-1.98081e-06
-2.05325e-06
-2.12445e-06
-2.19442e-06
-2.26317e-06
-2.33073e-06
-2.39711e-06
-2.46232e-06
-2.52639e-06
-2.58933e-06
-2.65116e-06
-2.7119e-06
-2.77154e-06
-2.83013e-06
-2.88766e-06
-2.94416e-06
-2.99964e-06
-3.05411e-06
-3.10758e-06
-3.16007e-06
-3.2116e-06
-3.26217e-06
-3.3118e-06
-3.3605e-06
-3.40828e-06
-3.45515e-06
-3.50113e-06
-3.54623e-06
-3.59046e-06
-3.63383e-06
-3.67635e-06
-3.71803e-06
-3.75889e-06
-3.79892e-06
-3.83816e-06
-3.87659e-06
-3.91424e-06
-3.95112e-06
-3.98723e-06
-4.02258e-06
-4.05719e-06
-4.09107e-06
-4.12422e-06
-4.15665e-06
-4.18838e-06
-4.21941e-06
-4.24975e-06
-4.27941e-06
-4.30841e-06
-4.33675e-06
-4.36444e-06
-4.39148e-06
-4.4179e-06
-4.4437e-06
-4.46889e-06
-4.49347e-06
-4.51746e-06
-4.54086e-06
-4.56369e-06
-4.58596e-06
-4.60767e-06
-4.62883e-06
-4.64945e-06
-4.66954e-06
-4.68911e-06
-4.70817e-06
-4.72673e-06
-4.74479e-06
-4.76237e-06
-4.77947e-06
-4.7961e-06
-4.81228e-06
-4.828e-06
-4.84329e-06
-4.85814e-06
-4.87256e-06
-4.88657e-06
-4.90018e-06
-4.91338e-06
-4.9262e-06
-4.93863e-06
-4.95068e-06
-4.96237e-06
-4.9737e-06
-4.98469e-06
-4.99533e-06
-5.00563e-06
-5.01561e-06
-5.02527e-06
-5.03462e-06
-5.04366e-06
-5.05241e-06
-5.06087e-06
-5.06905e-06
-5.07695e-06
-5.08458e-06
-5.09196e-06
-5.09908e-06
-5.10595e-06
-5.11258e-06
-5.11898e-06
-5.12515e-06
-5.1311e-06
-5.13683e-06
-5.14236e-06
-5.14769e-06
-5.15281e-06
-5.15775e-06
-5.1625e-06
-5.16707e-06
-5.17147e-06
-5.17571e-06
-5.17977e-06
-5.18368e-06
-5.18744e-06
-5.19105e-06
-5.19451e-06
-5.19783e-06
-5.20101e-06
-5.20406e-06
-5.20698e-06
-5.20979e-06
-5.21247e-06
-5.21504e-06
-5.21751e-06
-5.21986e-06
-5.22214e-06
-5.22432e-06
-5.2264e-06
-5.22839e-06
-5.2303e-06
-5.23211e-06
-5.23385e-06
-5.23552e-06
-5.2371e-06
-5.23861e-06
-5.24005e-06
-5.24143e-06
-5.24274e-06
-5.24399e-06
-5.24519e-06
-5.24633e-06
-5.24741e-06
-5.24845e-06
-5.24943e-06
-5.25037e-06
-5.25126e-06
-5.25211e-06
-5.25291e-06
-5.25368e-06
-5.25441e-06
-5.2551e-06
-5.25576e-06
-5.25638e-06
-5.25698e-06
-5.25754e-06
-5.25808e-06
-5.25858e-06
-5.25906e-06
-5.25952e-06
-5.25995e-06
-5.26036e-06
-5.26075e-06
-5.26111e-06
-5.26146e-06
-5.26179e-06
-5.2621e-06
-5.2624e-06
-5.26267e-06
-5.26294e-06
-5.26319e-06
-5.26342e-06
-5.26364e-06
-5.26385e-06
-5.26405e-06
-5.26424e-06
-5.26441e-06
-5.26458e-06
-5.26474e-06
-5.26488e-06
-5.26502e-06
-5.26515e-06
-5.26528e-06
-5.26539e-06
-5.2655e-06
-5.26561e-06
-5.2657e-06
-5.26579e-06
-5.26588e-06
-5.26596e-06
-5.26604e-06
-5.26611e-06
-5.26617e-06
-5.26623e-06
-5.26629e-06
-5.26635e-06
-5.2664e-06
-5.26644e-06
-5.26649e-06
-5.26653e-06
-5.26657e-06
-5.2666e-06
-5.26664e-06
-5.26667e-06
-5.2667e-06
-5.26672e-06
-5.26675e-06
-5.26677e-06
-5.26679e-06
-5.26681e-06
-5.26683e-06
-5.26684e-06
-5.26686e-06
-5.26687e-06
-5.26688e-06
-5.26689e-06
-5.2669e-06
-5.26691e-06
-5.26692e-06
-5.26693e-06
-5.26693e-06
-5.26694e-06
-5.26694e-06
-5.26695e-06
-5.26695e-06
-5.26695e-06
-5.26695e-06
-5.26695e-06
-5.26695e-06
-5.26695e-06
-5.26695e-06
-5.26695e-06
-5.26695e-06
-5.26695e-06
-5.26694e-06
-5.26694e-06
-5.26694e-06
-5.26693e-06
-5.26693e-06
-5.26692e-06
-5.26692e-06
-5.26691e-06
-5.26691e-06
-5.2669e-06
-5.2669e-06
-5.26689e-06
-5.26689e-06
-5.26688e-06
-5.26687e-06
-5.26687e-06
-5.26686e-06
-5.26685e-06
-5.26685e-06
-5.26684e-06
-5.26683e-06
-5.26682e-06
-5.26682e-06
-5.26681e-06
-5.2668e-06
-5.26679e-06
-5.26678e-06
-5.26678e-06
-5.26677e-06
-5.26676e-06
-5.26675e-06
-5.26674e-06
-5.26673e-06
-5.26673e-06
-5.26672e-06
-5.26671e-06
-5.2667e-06
-5.26669e-06
-5.26668e-06
-5.26667e-06
-5.26667e-06
-5.26666e-06
-5.26665e-06
-5.26664e-06
-5.26663e-06
-5.26662e-06
-5.26662e-06
-5.26661e-06
-5.2666e-06
-5.26659e-06
-5.26658e-06
-5.26657e-06
-5.26657e-06
-5.26656e-06
-5.26655e-06
-5.26654e-06
-5.26653e-06
-5.26653e-06
-5.26652e-06
-5.26651e-06
-5.26651e-06
-5.2665e-06
-5.26649e-06
-5.26649e-06
-5.26648e-06
-5.26647e-06
-5.26647e-06
-5.26646e-06
-5.26645e-06
-5.26645e-06
-5.26644e-06
-5.26644e-06
-5.26643e-06
-5.26642e-06
-5.26642e-06
-5.26642e-06
-5.26641e-06
-5.26641e-06
-5.2664e-06
-5.2664e-06
-5.26639e-06
-5.26639e-06
-5.26638e-06
-5.26638e-06
-5.26638e-06
-5.26638e-06
-5.26637e-06
-5.26637e-06
-5.26636e-06
-5.26636e-06
-5.26636e-06
-5.26636e-06
-5.26635e-06
-5.26635e-06
-5.26635e-06
-5.26635e-06
-5.26635e-06
-5.26635e-06
-5.26634e-06
-5.26634e-06
-5.26634e-06
-5.26634e-06
-5.26634e-06
-5.26634e-06
-5.26634e-06
-5.26634e-06
-5.26634e-06
-5.26634e-06
-5.26634e-06
-5.26634e-06
-5.26634e-06
-5.26634e-06
-5.26634e-06
-5.26635e-06
-5.26635e-06
-5.26635e-06
-5.26635e-06
-5.26635e-06
-5.26635e-06
-5.26635e-06
-5.26636e-06
-5.26636e-06
-5.26636e-06
-5.26636e-06
-5.26636e-06
-5.26637e-06
-5.26637e-06
-5.26637e-06
-5.26637e-06
-5.26637e-06
-5.26638e-06
-5.26638e-06
-5.26638e-06
-5.26638e-06
-5.26638e-06
-5.26639e-06
-5.26639e-06
-5.26639e-06
-5.26639e-06
-5.26639e-06
-5.26639e-06
-5.26639e-06
-5.2664e-06
-5.2664e-06
-5.2664e-06
-5.2664e-06
-5.2664e-06
-5.2664e-06
-5.2664e-06
-5.26641e-06
-5.26641e-06
-5.26641e-06
-5.26641e-06
-5.26641e-06
-5.26641e-06
-5.26641e-06
-5.26641e-06
-5.26641e-06
-5.26641e-06
-5.26641e-06
-5.26641e-06
-5.26641e-06
-5.26641e-06
-5.26641e-06
-5.26641e-06
-5.26641e-06
-5.26641e-06
-5.26641e-06
-5.26641e-06
-5.26641e-06
-5.26641e-06
-5.26641e-06
-5.26641e-06
-5.26641e-06
-5.26641e-06
-5.2664e-06
-5.2664e-06
-5.2664e-06
-5.2664e-06
-5.2664e-06
-5.2664e-06
-5.2664e-06
-5.2664e-06
-5.2664e-06
-5.2664e-06
-5.26639e-06
-5.26639e-06
-5.26639e-06
-5.26639e-06
-5.26639e-06
-5.26639e-06
-5.26639e-06
-5.26638e-06
-5.26638e-06
-5.26638e-06
-5.26638e-06
-5.26638e-06
-5.26638e-06
-5.26638e-06
-5.26638e-06
-5.26638e-06
-5.26637e-06
-5.26637e-06
-5.26637e-06
-5.26637e-06
-5.26637e-06
-5.26637e-06
-5.26637e-06
-5.26637e-06
-5.26637e-06
-5.26637e-06
-5.26636e-06
-5.26636e-06
-5.26636e-06
-5.26636e-06
-5.26636e-06
-5.26636e-06
-5.26636e-06
-5.26635e-06
-5.26635e-06
-5.26635e-06
-5.26635e-06
-5.26635e-06
-5.26635e-06
-5.26635e-06
-5.26635e-06
-5.26635e-06
-5.26635e-06
-5.26635e-06
-5.26635e-06
-5.26635e-06
-5.26635e-06
-5.26635e-06
-5.26635e-06
-5.26635e-06
-5.26635e-06
-5.26635e-06
-5.26635e-06
-5.26635e-06
-5.26635e-06
-5.26635e-06
-5.26635e-06
-5.26635e-06
-5.26635e-06
-5.26635e-06
-5.26635e-06
-5.26635e-06
-5.26635e-06
-5.26635e-06
-5.26635e-06
-5.26635e-06
-5.26635e-06
-5.26635e-06
-5.26635e-06
-5.26635e-06
-5.26635e-06
-5.26635e-06
-5.26635e-06
-5.26635e-06
-5.26635e-06
-5.26635e-06
-5.26635e-06
-5.26635e-06
-5.26635e-06
-5.26635e-06
-5.26635e-06
-5.26635e-06
-5.26635e-06
-5.26634e-06
-5.26634e-06
-5.26634e-06
-5.26634e-06
-5.26634e-06
-5.26634e-06
-5.26634e-06
-5.26634e-06
-5.26634e-06
-5.26634e-06
-5.26633e-06
-5.26633e-06
-5.26633e-06
-5.26633e-06
-5.26633e-06
-5.26633e-06
-5.26633e-06
-5.26632e-06
-5.26632e-06
-5.26632e-06
-5.26632e-06
-5.26632e-06
-5.26632e-06
-5.26631e-06
-5.26631e-06
-5.26631e-06
-5.26631e-06
-5.26631e-06
-5.2663e-06
-5.2663e-06
-5.2663e-06
-5.2663e-06
-5.2663e-06
-5.26629e-06
-5.26629e-06
-5.26629e-06
-5.26628e-06
-5.26628e-06
-5.26628e-06
-5.26627e-06
-5.26627e-06
-5.26627e-06
-5.26627e-06
-5.26626e-06
-5.26626e-06
-5.26626e-06
-5.26625e-06
-5.26625e-06
-5.26625e-06
-5.26625e-06
-5.26624e-06
-5.26624e-06
-5.26624e-06
-5.26624e-06
-5.26623e-06
-5.26623e-06
-5.26623e-06
-5.26623e-06
-5.26623e-06
-5.26623e-06
-5.26622e-06
-5.26622e-06
-5.26622e-06
-5.26622e-06
-5.26621e-06
-5.26621e-06
-5.26621e-06
-5.26621e-06
-5.26621e-06
-5.26621e-06
-5.26621e-06
-5.26621e-06
-5.26621e-06
-5.26621e-06
-5.26621e-06
-5.26621e-06
-5.26621e-06
-5.26621e-06
-5.26621e-06
-5.26621e-06
-5.26621e-06
-5.26621e-06
-5.26621e-06
-5.26621e-06
-5.26621e-06
-5.26621e-06
-5.26621e-06
-5.26621e-06
-5.26621e-06
-5.26621e-06
-5.26621e-06
-5.26621e-06
-5.26621e-06
-5.26621e-06
-5.26622e-06
-5.26622e-06
-5.26622e-06
-5.26622e-06
-5.26622e-06
-5.26622e-06
-5.26622e-06
-5.26623e-06
-5.26623e-06
-5.26623e-06
-5.26623e-06
-5.26623e-06
-5.26624e-06
-5.26624e-06
-5.26624e-06
-5.26624e-06
-5.26624e-06
-5.26624e-06
-5.26624e-06
-5.26624e-06
-5.26625e-06
-5.26625e-06
-5.26625e-06
-5.26625e-06
-5.26625e-06
-5.26625e-06
-5.26625e-06
-5.26626e-06
-5.26626e-06
-5.26626e-06
-5.26626e-06
-5.26626e-06
-5.26626e-06
-5.26626e-06
-5.26626e-06
-5.26626e-06
-5.26626e-06
-5.26626e-06
-5.26626e-06
-5.26626e-06
-5.26626e-06
-5.26626e-06
-5.26626e-06
-5.26626e-06
-5.26626e-06
-5.26625e-06
-5.26625e-06
-5.26625e-06
-5.26625e-06
-5.26625e-06
-5.26625e-06
-5.26624e-06
-5.26624e-06
-5.26624e-06
-5.26623e-06
-5.26623e-06
-5.26623e-06
-5.26623e-06
-5.26622e-06
-5.26622e-06
-5.26621e-06
-5.26621e-06
-5.26621e-06
-5.2662e-06
-5.2662e-06
-5.26619e-06
-5.26619e-06
-5.26618e-06
-5.26618e-06
-5.26617e-06
-5.26617e-06
-5.26616e-06
-5.26615e-06
-5.26615e-06
-5.26614e-06
-5.26613e-06
-5.26613e-06
-5.26612e-06
-5.26611e-06
-5.26611e-06
-5.2661e-06
-5.2661e-06
-5.26609e-06
-5.26608e-06
-5.26608e-06
-5.26607e-06
-5.26606e-06
-5.26606e-06
-5.26605e-06
-5.26605e-06
-5.26604e-06
-5.26603e-06
-5.26603e-06
-5.26602e-06
-5.26602e-06
-5.26601e-06
-5.26601e-06
-5.266e-06
-5.266e-06
-5.26599e-06
-5.26599e-06
-5.26598e-06
-5.26598e-06
-5.26598e-06
-5.26597e-06
-5.26597e-06
-5.26597e-06
-5.26597e-06
-5.26596e-06
-5.26596e-06
-5.26596e-06
-5.26596e-06
-5.26596e-06
-5.26596e-06
-5.26596e-06
-5.26596e-06
-5.26596e-06
-5.26596e-06
-5.26597e-06
-5.26597e-06
-5.26597e-06
-5.26597e-06
-5.26597e-06
-5.26598e-06
-5.26598e-06
-5.26599e-06
-5.26599e-06
-5.26599e-06
-5.266e-06
-5.266e-06
-5.26601e-06
-5.26601e-06
-5.26602e-06
-5.26603e-06
-5.26603e-06
-5.26604e-06
-5.26604e-06
-5.26605e-06
-5.26606e-06
-5.26606e-06
-5.26607e-06
-5.26608e-06
-5.26608e-06
-5.26609e-06
-5.2661e-06
-5.2661e-06
-5.26611e-06
-5.26612e-06
-5.26613e-06
-5.26613e-06
-5.26614e-06
-5.26615e-06
-5.26615e-06
-5.26616e-06
-5.26616e-06
-5.26617e-06
-5.26617e-06
-5.26618e-06
-5.26618e-06
-5.26619e-06
-5.26619e-06
-5.2662e-06
-5.2662e-06
-5.2662e-06
-5.2662e-06
-5.26621e-06
-5.26621e-06
-5.26621e-06
-5.26621e-06
-5.26621e-06
-5.26621e-06
-5.26621e-06
-5.26622e-06
-5.26622e-06
-5.26622e-06
-5.26622e-06
-5.26621e-06
-5.26621e-06
-5.26621e-06
-5.26621e-06
-5.26621e-06
-5.26621e-06
-5.2662e-06
-5.2662e-06
-5.2662e-06
-5.2662e-06
-5.26619e-06
-5.26619e-06
-5.26619e-06
-5.26618e-06
-5.26618e-06
-5.26618e-06
-5.26618e-06
-5.26617e-06
-5.26617e-06
-5.26617e-06
-5.26617e-06
-5.26617e-06
-5.26617e-06
-5.26617e-06
-5.26618e-06
-5.26618e-06
-5.26618e-06
-5.26619e-06
-5.2662e-06
-5.26621e-06
-5.26622e-06
-5.26624e-06
-5.26626e-06
-5.26628e-06
-5.2663e-06
-5.26633e-06
-5.26636e-06
-5.2664e-06
-5.26644e-06
-5.26648e-06
-5.26654e-06
-5.2666e-06
-5.26666e-06
-5.26674e-06
-5.26682e-06
-5.26691e-06
-5.26702e-06
-5.26713e-06
-5.26726e-06
-5.26741e-06
-5.26757e-06
-5.26774e-06
-5.26794e-06
-5.26816e-06
-5.2684e-06
-5.26867e-06
-5.26896e-06
-5.26929e-06
-5.26965e-06
-5.27004e-06
-5.27048e-06
-5.27096e-06
-5.27148e-06
-5.27206e-06
-5.2727e-06
-5.2734e-06
-5.27416e-06
-5.275e-06
-5.27591e-06
-5.27692e-06
-5.27802e-06
-5.27922e-06
-5.28053e-06
-5.28196e-06
-5.28351e-06
-5.28521e-06
-5.28706e-06
-5.28907e-06
-5.29126e-06
-5.29364e-06
-5.29622e-06
-5.29902e-06
-5.30206e-06
-5.30535e-06
-5.30891e-06
-5.31276e-06
-5.31693e-06
-5.32144e-06
-5.3263e-06
-5.33154e-06
-5.3372e-06
-5.34329e-06
-5.34985e-06
-5.35691e-06
-5.3645e-06
-5.37264e-06
-5.38139e-06
-5.39077e-06
-5.40083e-06
-5.4116e-06
-5.42313e-06
-5.43546e-06
-5.44864e-06
-5.46272e-06
-5.47774e-06
-5.49376e-06
-5.51082e-06
-5.529e-06
-5.54834e-06
-5.5689e-06
-5.59075e-06
-5.61395e-06
-5.63857e-06
-5.66467e-06
-5.69232e-06
-5.72159e-06
-5.75256e-06
-5.78531e-06
-5.8199e-06
-5.85642e-06
-5.89496e-06
-5.93558e-06
-5.97838e-06
-6.02345e-06
-6.07086e-06
-6.12072e-06
-6.1731e-06
-6.22811e-06
-6.28584e-06
-6.34638e-06
-6.40983e-06
-6.47628e-06
-6.54584e-06
-6.61861e-06
-6.69469e-06
-6.77418e-06
-6.85719e-06
-6.94383e-06
-7.03419e-06
-7.12839e-06
-7.22654e-06
-7.32875e-06
-7.43512e-06
-7.54577e-06
-7.66082e-06
-7.78038e-06
-7.90457e-06
-8.0335e-06
-8.16729e-06
-8.30607e-06
-8.44996e-06
-8.59908e-06
-8.75356e-06
-8.91353e-06
-9.07912e-06
-9.25045e-06
-9.42768e-06
-9.61094e-06
-9.80038e-06
-9.99614e-06
-1.01984e-05
-1.04072e-05
-1.06229e-05
-1.08455e-05
-1.10753e-05
-1.13124e-05
-1.1557e-05
-1.18093e-05
-1.20695e-05
-1.23379e-05
-1.26146e-05
-1.28998e-05
-1.31939e-05
-1.3497e-05
-1.38093e-05
-1.41309e-05
-1.44619e-05
-1.4802e-05
-1.51444e-05
-1.55156e-05
-1.58961e-05
-1.62872e-05
-1.66897e-05
-1.71046e-05
-1.75325e-05
-1.79741e-05
-1.84297e-05
-1.88998e-05
-1.93847e-05
-1.98847e-05
-2.03995e-05
-2.09289e-05
-2.14721e-05
-2.20277e-05
-2.25937e-05
-2.31667e-05
-2.37419e-05
-2.43121e-05
-2.48674e-05
-2.53934e-05
-2.587e-05
-2.62691e-05
-2.65514e-05
)
;

boundaryField
{
    fixedWall
    {
        type            calculated;
        value           uniform 0;
    }
    outlet
    {
        type            calculated;
        value           uniform -2.66626e-05;
    }
    defaultFaces
    {
        type            empty;
    }
}


// ************************************************************************* //
