/*--------------------------------*- C++ -*----------------------------------*\
| =========                 |                                                 |
| \\      /  F ield         | OpenFOAM: The Open Source CFD Toolbox           |
|  \\    /   O peration     | Version:  2406                                  |
|   \\  /    A nd           | Website:  www.openfoam.com                      |
|    \\/     M anipulation  |                                                 |
\*---------------------------------------------------------------------------*/
FoamFile
{
    version     2.0;
    format      ascii;
    arch        "LSB;label=32;scalar=64";
    class       volScalarField;
    location    "9.1";
    object      T;
}
// * * * * * * * * * * * * * * * * * * * * * * * * * * * * * * * * * * * * * //

dimensions      [0 0 0 1 0 0 0];

internalField   nonuniform List<scalar> 
1000
(
306.521
331.319
354.184
375.439
395.321
414.015
431.665
448.388
464.28
479.42
493.877
507.707
520.961
533.68
545.904
557.664
568.991
579.911
590.447
600.621
610.451
619.956
629.151
638.05
646.667
655.015
663.104
670.945
678.549
685.924
693.078
700.021
706.759
713.299
719.648
725.813
731.8
737.613
743.259
748.743
754.069
759.242
764.267
769.148
773.889
778.495
782.968
787.312
791.532
795.63
799.609
803.474
807.226
810.869
814.406
817.84
821.173
824.408
827.547
830.593
833.548
836.416
839.197
841.894
844.51
847.046
849.505
851.888
854.198
856.436
858.605
860.706
862.741
864.711
866.619
868.466
870.254
871.984
873.658
875.278
876.844
878.358
879.823
881.238
882.606
883.928
885.205
886.438
887.629
888.779
889.889
890.96
891.994
892.991
893.953
894.88
895.774
896.635
897.465
898.265
899.035
899.777
900.491
901.178
901.839
902.475
903.087
903.676
904.241
904.785
905.307
905.809
906.291
906.753
907.198
907.624
908.033
908.425
908.801
909.162
909.508
909.839
910.156
910.46
910.751
911.029
911.296
911.551
911.795
912.028
912.251
912.464
912.667
912.862
913.048
913.225
913.394
913.555
913.709
913.856
913.996
914.129
914.256
914.377
914.492
914.602
914.706
914.805
914.899
914.989
915.074
915.155
915.232
915.306
915.375
915.441
915.504
915.563
915.619
915.673
915.723
915.771
915.816
915.859
915.9
915.938
915.974
916.009
916.041
916.072
916.1
916.128
916.153
916.178
916.2
916.222
916.242
916.261
916.279
916.296
916.312
916.327
916.341
916.354
916.366
916.377
916.388
916.398
916.408
916.416
916.425
916.432
916.439
916.446
916.452
916.458
916.463
916.468
916.473
916.477
916.481
916.484
916.488
916.491
916.494
916.496
916.498
916.501
916.502
916.504
916.506
916.507
916.508
916.509
916.51
916.511
916.512
916.512
916.513
916.513
916.514
916.514
916.514
916.514
916.514
916.514
916.514
916.514
916.514
916.513
916.513
916.513
916.512
916.512
916.512
916.511
916.511
916.51
916.51
916.509
916.509
916.508
916.508
916.507
916.507
916.506
916.506
916.505
916.504
916.504
916.503
916.503
916.502
916.502
916.501
916.501
916.5
916.499
916.499
916.498
916.498
916.497
916.497
916.496
916.496
916.496
916.495
916.495
916.494
916.494
916.493
916.493
916.493
916.492
916.492
916.492
916.491
916.491
916.491
916.49
916.49
916.49
916.49
916.489
916.489
916.489
916.489
916.489
916.488
916.488
916.488
916.488
916.488
916.488
916.488
916.488
916.488
916.488
916.488
916.488
916.488
916.488
916.488
916.488
916.488
916.488
916.488
916.488
916.488
916.488
916.488
916.488
916.489
916.489
916.489
916.489
916.489
916.489
916.49
916.49
916.49
916.49
916.49
916.491
916.491
916.491
916.491
916.492
916.492
916.492
916.492
916.493
916.493
916.493
916.494
916.494
916.494
916.495
916.495
916.495
916.496
916.496
916.496
916.496
916.497
916.497
916.497
916.498
916.498
916.498
916.499
916.499
916.499
916.5
916.5
916.5
916.501
916.501
916.501
916.502
916.502
916.502
916.503
916.503
916.503
916.503
916.504
916.504
916.504
916.505
916.505
916.505
916.505
916.506
916.506
916.506
916.506
916.507
916.507
916.507
916.507
916.507
916.508
916.508
916.508
916.508
916.508
916.509
916.509
916.509
916.509
916.509
916.509
916.51
916.51
916.51
916.51
916.51
916.51
916.51
916.51
916.511
916.511
916.511
916.511
916.511
916.511
916.511
916.511
916.511
916.511
916.511
916.511
916.512
916.512
916.512
916.512
916.512
916.512
916.512
916.512
916.512
916.512
916.512
916.512
916.512
916.512
916.512
916.512
916.512
916.512
916.512
916.512
916.512
916.512
916.512
916.512
916.512
916.513
916.513
916.513
916.513
916.513
916.513
916.513
916.513
916.513
916.513
916.513
916.513
916.513
916.513
916.513
916.513
916.513
916.513
916.513
916.513
916.513
916.513
916.513
916.513
916.513
916.513
916.513
916.514
916.514
916.514
916.514
916.514
916.514
916.514
916.514
916.514
916.514
916.514
916.514
916.514
916.514
916.514
916.514
916.514
916.514
916.514
916.514
916.514
916.514
916.515
916.515
916.515
916.515
916.515
916.515
916.515
916.515
916.515
916.515
916.515
916.515
916.515
916.515
916.515
916.515
916.515
916.515
916.515
916.515
916.515
916.515
916.515
916.515
916.515
916.515
916.515
916.515
916.515
916.515
916.515
916.515
916.515
916.515
916.515
916.515
916.515
916.515
916.515
916.515
916.515
916.515
916.515
916.515
916.515
916.515
916.515
916.515
916.515
916.515
916.515
916.515
916.515
916.515
916.515
916.515
916.515
916.515
916.515
916.515
916.515
916.515
916.515
916.515
916.515
916.515
916.515
916.515
916.515
916.515
916.515
916.515
916.515
916.515
916.515
916.515
916.515
916.515
916.515
916.515
916.515
916.515
916.515
916.515
916.516
916.516
916.516
916.516
916.516
916.516
916.516
916.516
916.516
916.516
916.516
916.516
916.516
916.516
916.516
916.517
916.517
916.517
916.517
916.517
916.517
916.517
916.517
916.517
916.517
916.517
916.517
916.518
916.518
916.518
916.518
916.518
916.518
916.518
916.518
916.518
916.518
916.518
916.518
916.518
916.518
916.518
916.518
916.519
916.519
916.519
916.519
916.519
916.519
916.519
916.519
916.519
916.519
916.519
916.519
916.519
916.519
916.519
916.519
916.519
916.519
916.519
916.519
916.519
916.519
916.519
916.519
916.519
916.518
916.518
916.518
916.518
916.518
916.518
916.518
916.518
916.518
916.518
916.518
916.518
916.518
916.518
916.517
916.517
916.517
916.517
916.517
916.517
916.517
916.517
916.517
916.517
916.517
916.516
916.516
916.516
916.516
916.516
916.516
916.516
916.516
916.516
916.516
916.516
916.516
916.515
916.515
916.515
916.515
916.515
916.515
916.515
916.515
916.515
916.515
916.515
916.515
916.515
916.515
916.515
916.515
916.515
916.515
916.515
916.515
916.515
916.515
916.515
916.515
916.515
916.516
916.516
916.516
916.516
916.516
916.516
916.516
916.516
916.516
916.517
916.517
916.517
916.517
916.517
916.517
916.518
916.518
916.518
916.518
916.518
916.519
916.519
916.519
916.519
916.519
916.52
916.52
916.52
916.52
916.52
916.521
916.521
916.521
916.521
916.521
916.521
916.522
916.522
916.522
916.522
916.522
916.522
916.523
916.523
916.523
916.523
916.523
916.523
916.523
916.523
916.523
916.523
916.523
916.523
916.523
916.523
916.523
916.523
916.523
916.523
916.523
916.523
916.523
916.523
916.523
916.523
916.522
916.522
916.522
916.522
916.522
916.522
916.521
916.521
916.521
916.521
916.52
916.52
916.52
916.52
916.519
916.519
916.519
916.519
916.518
916.518
916.518
916.517
916.517
916.517
916.516
916.516
916.516
916.516
916.515
916.515
916.515
916.514
916.514
916.514
916.513
916.513
916.513
916.513
916.512
916.512
916.512
916.511
916.511
916.511
916.511
916.51
916.51
916.51
916.51
916.509
916.509
916.509
916.509
916.508
916.508
916.508
916.508
916.507
916.507
916.507
916.506
916.506
916.506
916.505
916.505
916.504
916.504
916.503
916.503
916.502
916.501
916.5
916.499
916.498
916.497
916.496
916.494
916.493
916.491
916.489
916.487
916.484
916.481
916.478
916.475
916.471
916.467
916.463
916.458
916.452
916.446
916.439
916.431
916.423
916.414
916.404
916.392
916.38
916.367
916.352
916.336
916.318
916.298
916.277
916.254
916.228
916.2
916.17
916.136
916.1
916.06
916.017
915.97
915.919
915.864
915.803
915.738
915.667
915.59
915.507
915.417
915.32
915.214
915.101
914.978
914.846
914.704
914.551
914.386
914.209
914.019
913.814
913.596
913.361
913.11
912.841
912.554
912.247
911.919
911.57
911.197
910.8
910.378
909.928
909.451
908.944
908.406
907.835
907.23
906.59
905.913
905.196
904.439
903.64
902.796
901.907
900.97
899.983
898.944
897.851
896.703
895.497
894.23
892.902
891.508
890.048
888.519
886.917
885.242
883.489
881.657
879.743
877.743
875.655
873.476
871.202
868.831
866.358
863.78
861.094
858.295
855.379
852.343
849.18
845.887
842.458
838.888
835.171
831.3
827.271
823.074
818.704
814.152
809.41
804.469
799.319
793.95
788.351
782.511
776.417
770.056
763.413
756.473
749.221
741.638
733.707
725.408
716.824
707.736
698.209
688.218
677.74
666.745
655.206
643.093
630.376
617.024
603.007
588.293
572.854
556.663
539.697
521.937
503.372
483.999
463.827
442.878
421.192
398.83
375.876
352.446
328.693
304.812
)
;

boundaryField
{
    fixedWall
    {
        type            fixedValue;
        value           uniform 293;
    }
    outlet
    {
        type            inletOutlet;
        inletValue      uniform 293;
        value           uniform 293;
    }
    defaultFaces
    {
        type            empty;
    }
}


// ************************************************************************* //
