/*--------------------------------*- C++ -*----------------------------------*\
| =========                 |                                                 |
| \\      /  F ield         | OpenFOAM: The Open Source CFD Toolbox           |
|  \\    /   O peration     | Version:  2406                                  |
|   \\  /    A nd           | Website:  www.openfoam.com                      |
|    \\/     M anipulation  |                                                 |
\*---------------------------------------------------------------------------*/
FoamFile
{
    version     2.0;
    format      ascii;
    arch        "LSB;label=32;scalar=64";
    class       volScalarField;
    location    "7.2";
    object      Qdot;
}
// * * * * * * * * * * * * * * * * * * * * * * * * * * * * * * * * * * * * * //

dimensions      [1 -1 -3 0 0 0 0];

internalField   nonuniform List<scalar> 
1000
(
-2.23584e-18
-9.36816e-17
-1.69264e-15
7.60884e-09
5.56944e-08
2.6601e-07
1.0274e-06
3.28302e-06
9.04188e-06
2.20115e-05
4.83924e-05
9.76601e-05
0.000183289
0.000323213
0.000540039
0.000860869
0.00131678
0.0019419
0.00277226
0.0038444
0.00519386
0.00685366
0.00885282
0.0112151
0.013958
0.0170918
0.020619
0.0245344
0.0288249
0.0334701
0.0384426
0.043709
0.0492308
0.0549655
0.0608676
0.0668898
0.0729843
0.0791033
0.0852005
0.0912316
0.0971555
0.102934
0.108533
0.113923
0.119078
0.123977
0.128604
0.132945
0.136993
0.140743
0.144195
0.147349
0.150212
0.15279
0.155093
0.157132
0.15892
0.16047
0.161797
0.162915
0.163841
0.164589
0.165174
0.165611
0.165914
0.166098
0.166176
0.16616
0.166062
0.165894
0.165666
0.165387
0.165067
0.164714
0.164336
0.163938
0.163528
0.16311
0.16269
0.162272
0.16186
0.161457
0.161066
0.16069
0.16033
0.159989
0.159667
0.159367
0.159088
0.158832
0.158599
0.158389
0.158202
0.158039
0.157899
0.157782
0.157688
0.157615
0.157564
0.157535
0.157525
0.157536
0.157565
0.157613
0.157679
0.157762
0.157861
0.157975
0.158105
0.158248
0.158405
0.158575
0.158757
0.158951
0.159155
0.15937
0.159595
0.159828
0.16007
0.160321
0.160579
0.160844
0.161116
0.161394
0.161678
0.161966
0.162259
0.162559
0.162864
0.163172
0.163485
0.163801
0.16412
0.164443
0.164769
0.165098
0.165429
0.165763
0.166099
0.166437
0.166778
0.16712
0.167464
0.16781
0.168157
0.168506
0.168856
0.169208
0.16956
0.169915
0.17027
0.170627
0.170984
0.171343
0.171703
0.172064
0.172426
0.172789
0.173152
0.173517
0.173883
0.17425
0.174617
0.174986
0.175355
0.175726
0.176097
0.176469
0.176843
0.177217
0.177592
0.177968
0.178345
0.178723
0.179102
0.179482
0.179863
0.180245
0.180628
0.181012
0.181397
0.181783
0.182171
0.182559
0.182948
0.183339
0.18373
0.184123
0.184516
0.184911
0.185307
0.185705
0.186103
0.186502
0.186901
0.1873
0.187704
0.188108
0.188514
0.188921
0.189329
0.189738
0.190149
0.19056
0.190973
0.191387
0.191803
0.192219
0.192637
0.193056
0.193477
0.193898
0.194321
0.194746
0.195171
0.195598
0.196027
0.196456
0.196887
0.197319
0.197753
0.198188
0.198624
0.199062
0.199501
0.199941
0.200383
0.200826
0.201271
0.201716
0.202164
0.202612
0.203063
0.203514
0.203967
0.204422
0.204877
0.205335
0.205793
0.206254
0.206715
0.207178
0.207643
0.208109
0.208576
0.209045
0.209516
0.209988
0.210461
0.210936
0.211413
0.211891
0.21237
0.212851
0.213334
0.213818
0.214304
0.214791
0.21528
0.21577
0.216263
0.216756
0.217251
0.217748
0.218247
0.218747
0.219248
0.219752
0.220257
0.220763
0.221271
0.221781
0.222293
0.222806
0.223321
0.223838
0.224356
0.224876
0.225398
0.225922
0.226447
0.226974
0.227503
0.228034
0.228566
0.2291
0.229636
0.230174
0.230714
0.231255
0.231798
0.232343
0.23289
0.233439
0.23399
0.234542
0.235097
0.235653
0.236209
0.236766
0.237328
0.237892
0.238458
0.239026
0.239596
0.240168
0.240742
0.241317
0.241895
0.242475
0.243057
0.243641
0.244227
0.244815
0.245405
0.245997
0.246591
0.247188
0.247786
0.248386
0.248989
0.249594
0.250201
0.25081
0.251421
0.252034
0.25265
0.253268
0.253887
0.25451
0.255134
0.255761
0.256389
0.25702
0.257654
0.258289
0.258927
0.259568
0.26021
0.260855
0.261502
0.262152
0.262804
0.263458
0.264115
0.264774
0.265436
0.2661
0.266766
0.267435
0.268107
0.268781
0.269457
0.270136
0.270818
0.271502
0.272189
0.272878
0.27357
0.274264
0.274961
0.275661
0.276364
0.277069
0.277777
0.278487
0.279201
0.279917
0.280636
0.281357
0.282082
0.282809
0.283539
0.284272
0.285008
0.285747
0.286489
0.287233
0.287981
0.288731
0.289485
0.290241
0.291001
0.291764
0.292529
0.293298
0.29407
0.294845
0.295623
0.296404
0.297188
0.297976
0.298766
0.29956
0.300357
0.301158
0.301961
0.302768
0.303578
0.304391
0.305208
0.306028
0.306851
0.307678
0.308508
0.309341
0.310172
0.311013
0.311856
0.312704
0.313555
0.314409
0.315267
0.316129
0.316994
0.317862
0.318734
0.31961
0.320489
0.321372
0.322258
0.323148
0.324042
0.324939
0.32584
0.326745
0.327653
0.328565
0.329481
0.3304
0.331324
0.332251
0.333182
0.334117
0.335055
0.335998
0.336944
0.337895
0.338849
0.339807
0.340769
0.341736
0.342703
0.343671
0.344649
0.345632
0.346618
0.347609
0.348604
0.349603
0.350607
0.351614
0.352626
0.353643
0.354663
0.355688
0.356718
0.357752
0.35879
0.359833
0.36088
0.361932
0.362988
0.364049
0.365115
0.366185
0.36726
0.36834
0.369425
0.370514
0.371608
0.372707
0.373811
0.37492
0.376033
0.377152
0.378276
0.379404
0.380538
0.381677
0.382821
0.38397
0.385125
0.386284
0.387449
0.388619
0.389795
0.390976
0.392162
0.393353
0.39455
0.395753
0.396961
0.398175
0.399394
0.400619
0.40185
0.403086
0.404328
0.405575
0.406829
0.408088
0.409354
0.410625
0.411902
0.413185
0.414474
0.415769
0.41707
0.418377
0.41969
0.421
0.422325
0.423656
0.424994
0.426339
0.42769
0.429048
0.430412
0.431783
0.433161
0.434545
0.435935
0.437333
0.438737
0.440148
0.441566
0.442991
0.444423
0.445861
0.447307
0.44876
0.45022
0.451687
0.453162
0.454643
0.456132
0.457629
0.459133
0.460644
0.462163
0.463689
0.465223
0.466765
0.468314
0.469871
0.471436
0.473009
0.47459
0.476179
0.477775
0.47938
0.480993
0.482614
0.484243
0.485881
0.487527
0.489181
0.490844
0.492515
0.494194
0.495882
0.497579
0.499284
0.500993
0.502704
0.504436
0.506176
0.507925
0.509682
0.511449
0.513225
0.51501
0.516804
0.518608
0.520421
0.522243
0.524074
0.525916
0.527766
0.529627
0.531497
0.533377
0.535266
0.537166
0.539075
0.540995
0.542925
0.544865
0.546815
0.548776
0.550747
0.552729
0.554721
0.556725
0.558738
0.560763
0.562799
0.564846
0.566904
0.568973
0.571053
0.573145
0.575249
0.577364
0.57949
0.581629
0.583779
0.585942
0.588116
0.590303
0.592502
0.594713
0.596937
0.599173
0.601422
0.603684
0.605959
0.608246
0.610547
0.61286
0.615188
0.617528
0.619882
0.622249
0.62463
0.627025
0.629433
0.631856
0.634286
0.63672
0.639186
0.641665
0.64416
0.646669
0.649192
0.651731
0.654284
0.656852
0.659436
0.662034
0.664648
0.667278
0.669923
0.672583
0.67526
0.677952
0.680661
0.683385
0.686126
0.688884
0.691658
0.694449
0.697257
0.700082
0.702924
0.705783
0.70866
0.711555
0.714467
0.717398
0.720346
0.723313
0.726299
0.729303
0.732326
0.735368
0.738429
0.741509
0.744609
0.747729
0.750868
0.754028
0.757207
0.760408
0.763628
0.76687
0.770132
0.773416
0.776721
0.780047
0.783395
0.786765
0.790156
0.79357
0.797007
0.800466
0.803947
0.807452
0.810979
0.81453
0.818104
0.821702
0.825324
0.828969
0.832639
0.836333
0.840052
0.843795
0.847564
0.851357
0.855176
0.85902
0.86289
0.866764
0.870658
0.874605
0.878578
0.882577
0.886603
0.890655
0.894734
0.898841
0.902975
0.907137
0.911327
0.915546
0.919793
0.924069
0.928373
0.932708
0.937071
0.941465
0.945889
0.950343
0.954828
0.959344
0.963892
0.968471
0.973082
0.977726
0.982402
0.987111
0.991854
0.99663
1.00144
1.00629
1.01117
1.01608
1.02103
1.02602
1.03104
1.0361
1.0412
1.04634
1.05151
1.05673
1.06198
1.06727
1.0726
1.07797
1.08339
1.08884
1.09434
1.09987
1.10546
1.11108
1.11675
1.12246
1.12822
1.13402
1.13987
1.14575
1.15165
1.15764
1.16368
1.16976
1.1759
1.18208
1.18831
1.1946
1.20093
1.20732
1.21376
1.22025
1.22679
1.23339
1.24004
1.24675
1.25351
1.26033
1.2672
1.27414
1.28113
1.28817
1.29528
1.30245
1.30967
1.31696
1.32431
1.33172
1.33919
1.34672
1.35432
1.36199
1.36971
1.37751
1.38537
1.3933
1.40129
1.40935
1.41748
1.42569
1.43396
1.4423
1.45071
1.4592
1.46776
1.4764
1.48511
1.49389
1.50275
1.51169
1.52071
1.52981
1.53898
1.54824
1.55758
1.567
1.5765
1.58609
1.59577
1.60552
1.6153
1.62524
1.63527
1.64539
1.65561
1.66591
1.67632
1.68682
1.69741
1.70811
1.7189
1.7298
1.7408
1.7519
1.76311
1.77442
1.78585
1.79738
1.80903
1.82078
1.83266
1.84464
1.85675
1.86898
1.88132
1.89379
1.90638
1.9191
1.93195
1.94493
1.95804
1.97128
1.98466
1.99817
2.01183
2.02562
2.03956
2.05364
2.06787
2.08225
2.09672
2.1113
2.12614
2.14113
2.15629
2.17161
2.18709
2.20274
2.21855
2.23454
2.2507
2.26703
2.28354
2.30023
2.31711
2.33417
2.35142
2.36886
2.38649
2.40433
2.42236
2.44059
2.45904
2.47769
2.49656
2.51564
2.53494
2.55447
2.57423
2.59408
2.61429
2.63472
2.65539
2.6763
2.69746
2.71887
2.74053
2.76244
2.78462
2.80706
2.82977
2.85276
2.87602
2.89956
2.92338
2.9475
2.97191
2.99661
3.02163
3.04695
3.07258
3.09853
3.12481
3.15141
3.17835
3.20564
3.23327
3.26126
3.28961
3.31834
3.34745
3.37696
3.40688
3.43723
3.46803
3.49929
3.53105
3.56334
3.59618
3.62964
3.66375
3.69858
3.73419
3.77069
3.80815
3.84671
3.88648
3.92764
3.97035
4.01483
4.06131
4.11005
4.16136
4.21558
4.27307
4.33426
4.39958
4.46953
4.5446
4.62535
4.71231
4.80603
4.90702
5.01574
5.13258
5.25776
5.39133
5.53307
5.68243
5.83838
5.99937
6.16313
6.32659
6.48573
6.63546
6.76949
6.88037
6.95946
6.99713
6.98308
6.90687
6.75865
6.53018
6.21597
5.81462
5.33002
4.77237
4.15859
3.5119
2.86037
2.23427
1.66268
1.17658
0.775617
0.472988
0.262893
0.130687
0.0566968
0.0207812
0.00615977
0.00139
0.000219205
2.1311e-05
1.05361e-06
1.89832e-08
9.95331e-14
-2.7948e-20
)
;

boundaryField
{
    fixedWall
    {
        type            calculated;
        value           uniform 0;
    }
    outlet
    {
        type            calculated;
        value           uniform 0;
    }
    defaultFaces
    {
        type            empty;
    }
}


// ************************************************************************* //
