/*--------------------------------*- C++ -*----------------------------------*\
| =========                 |                                                 |
| \\      /  F ield         | OpenFOAM: The Open Source CFD Toolbox           |
|  \\    /   O peration     | Version:  2406                                  |
|   \\  /    A nd           | Website:  www.openfoam.com                      |
|    \\/     M anipulation  |                                                 |
\*---------------------------------------------------------------------------*/
FoamFile
{
    version     2.0;
    format      ascii;
    arch        "LSB;label=32;scalar=64";
    class       volScalarField;
    location    "4.7";
    object      CO2;
}
// * * * * * * * * * * * * * * * * * * * * * * * * * * * * * * * * * * * * * //

dimensions      [0 0 0 0 0 0 0];

internalField   nonuniform List<scalar> 
1000
(
0.0709258
0.0709258
0.0709258
0.0709258
0.0709258
0.0709258
0.0709259
0.0709259
0.0709259
0.0709259
0.0709259
0.0709259
0.0709259
0.0709259
0.0709259
0.070926
0.070926
0.070926
0.070926
0.070926
0.070926
0.070926
0.0709261
0.0709261
0.0709261
0.0709261
0.0709261
0.0709261
0.0709262
0.0709262
0.0709262
0.0709262
0.0709262
0.0709262
0.0709262
0.0709263
0.0709263
0.0709263
0.0709263
0.0709263
0.0709263
0.0709263
0.0709263
0.0709263
0.0709264
0.0709264
0.0709264
0.0709264
0.0709264
0.0709264
0.0709264
0.0709264
0.0709264
0.0709264
0.0709264
0.0709264
0.0709265
0.0709265
0.0709265
0.0709265
0.0709265
0.0709265
0.0709265
0.0709265
0.0709265
0.0709265
0.0709265
0.0709265
0.0709265
0.0709265
0.0709265
0.0709265
0.0709265
0.0709265
0.0709265
0.0709265
0.0709265
0.0709265
0.0709265
0.0709265
0.0709265
0.0709265
0.0709265
0.0709265
0.0709265
0.0709265
0.0709265
0.0709265
0.0709265
0.0709265
0.0709265
0.0709265
0.0709265
0.0709265
0.0709265
0.0709265
0.0709265
0.0709265
0.0709265
0.0709265
0.0709265
0.0709265
0.0709265
0.0709265
0.0709265
0.0709265
0.0709265
0.0709265
0.0709265
0.0709265
0.0709265
0.0709265
0.0709265
0.0709265
0.0709265
0.0709265
0.0709265
0.0709265
0.0709265
0.0709265
0.0709265
0.0709265
0.0709265
0.0709265
0.0709265
0.0709265
0.0709265
0.0709265
0.0709265
0.0709265
0.0709265
0.0709265
0.0709265
0.0709265
0.0709265
0.0709265
0.0709265
0.0709265
0.0709265
0.0709265
0.0709265
0.0709265
0.0709265
0.0709265
0.0709265
0.0709265
0.0709265
0.0709265
0.0709265
0.0709265
0.0709265
0.0709265
0.0709265
0.0709265
0.0709265
0.0709265
0.0709265
0.0709265
0.0709265
0.0709265
0.0709265
0.0709265
0.0709265
0.0709265
0.0709265
0.0709265
0.0709265
0.0709265
0.0709265
0.0709265
0.0709265
0.0709265
0.0709265
0.0709265
0.0709265
0.0709265
0.0709265
0.0709265
0.0709265
0.0709265
0.0709265
0.0709265
0.0709265
0.0709265
0.0709265
0.0709265
0.0709265
0.0709265
0.0709265
0.0709265
0.0709265
0.0709265
0.0709265
0.0709265
0.0709265
0.0709265
0.0709265
0.0709265
0.0709265
0.0709265
0.0709265
0.0709265
0.0709265
0.0709265
0.0709265
0.0709265
0.0709265
0.0709265
0.0709265
0.0709265
0.0709265
0.0709265
0.0709265
0.0709265
0.0709265
0.0709265
0.0709265
0.0709265
0.0709265
0.0709265
0.0709265
0.0709265
0.0709265
0.0709265
0.0709265
0.0709265
0.0709265
0.0709265
0.0709265
0.0709265
0.0709265
0.0709265
0.0709265
0.0709265
0.0709265
0.0709265
0.0709264
0.0709264
0.0709264
0.0709264
0.0709264
0.0709264
0.0709264
0.0709264
0.0709264
0.0709264
0.0709264
0.0709264
0.0709264
0.0709264
0.0709264
0.0709264
0.0709264
0.0709264
0.0709264
0.0709264
0.0709264
0.0709264
0.0709264
0.0709264
0.0709264
0.0709264
0.0709264
0.0709264
0.0709264
0.0709264
0.0709264
0.0709264
0.0709264
0.0709264
0.0709264
0.0709264
0.0709264
0.0709264
0.0709264
0.0709264
0.0709264
0.0709264
0.0709264
0.0709264
0.0709264
0.0709264
0.0709264
0.0709264
0.0709264
0.0709264
0.0709264
0.0709264
0.0709264
0.0709264
0.0709264
0.0709264
0.0709264
0.0709264
0.0709264
0.0709264
0.0709264
0.0709264
0.0709264
0.0709264
0.0709264
0.0709264
0.0709264
0.0709264
0.0709264
0.0709264
0.0709264
0.0709264
0.0709264
0.0709264
0.0709264
0.0709264
0.0709264
0.0709264
0.0709264
0.0709264
0.0709264
0.0709264
0.0709264
0.0709264
0.0709264
0.0709264
0.0709264
0.0709264
0.0709264
0.0709264
0.0709264
0.0709264
0.0709264
0.0709264
0.0709264
0.0709264
0.0709264
0.0709264
0.0709264
0.0709264
0.0709264
0.0709263
0.0709263
0.0709263
0.0709263
0.0709263
0.0709263
0.0709263
0.0709263
0.0709263
0.0709263
0.0709263
0.0709263
0.0709263
0.0709263
0.0709263
0.0709263
0.0709263
0.0709263
0.0709263
0.0709263
0.0709263
0.0709263
0.0709263
0.0709263
0.0709263
0.0709263
0.0709263
0.0709263
0.0709263
0.0709263
0.0709263
0.0709263
0.0709263
0.0709263
0.0709263
0.0709263
0.0709263
0.0709263
0.0709263
0.0709263
0.0709263
0.0709263
0.0709263
0.0709263
0.0709263
0.0709263
0.0709263
0.0709263
0.0709263
0.0709263
0.0709263
0.0709263
0.0709263
0.0709263
0.0709263
0.0709263
0.0709263
0.0709263
0.0709263
0.0709263
0.0709263
0.0709263
0.0709263
0.0709263
0.0709263
0.0709263
0.0709263
0.0709263
0.0709262
0.0709262
0.0709262
0.0709262
0.0709262
0.0709262
0.0709262
0.0709262
0.0709262
0.0709262
0.0709262
0.0709262
0.0709262
0.0709262
0.0709262
0.0709262
0.0709262
0.0709262
0.0709262
0.0709262
0.0709262
0.0709262
0.0709262
0.0709262
0.0709262
0.0709262
0.0709262
0.0709262
0.0709262
0.0709262
0.0709262
0.0709262
0.0709262
0.0709262
0.0709262
0.0709262
0.0709262
0.0709262
0.0709262
0.0709262
0.0709262
0.0709262
0.0709262
0.0709262
0.0709262
0.0709262
0.0709262
0.0709262
0.0709261
0.0709261
0.0709261
0.0709261
0.0709261
0.0709261
0.0709261
0.0709261
0.0709261
0.0709261
0.0709261
0.0709261
0.0709261
0.0709261
0.0709261
0.0709261
0.0709261
0.0709261
0.0709261
0.0709261
0.0709261
0.0709261
0.0709261
0.0709261
0.0709261
0.0709261
0.0709261
0.0709261
0.0709261
0.0709261
0.0709261
0.0709261
0.0709261
0.0709261
0.0709261
0.0709261
0.070926
0.070926
0.070926
0.070926
0.070926
0.070926
0.070926
0.070926
0.070926
0.070926
0.070926
0.070926
0.070926
0.070926
0.070926
0.070926
0.070926
0.070926
0.070926
0.070926
0.070926
0.070926
0.070926
0.070926
0.070926
0.070926
0.070926
0.070926
0.070926
0.0709259
0.0709259
0.0709259
0.0709259
0.0709259
0.0709259
0.0709259
0.0709259
0.0709259
0.0709259
0.0709259
0.0709259
0.0709259
0.0709259
0.0709259
0.0709259
0.0709259
0.0709259
0.0709259
0.0709259
0.0709259
0.0709259
0.0709258
0.0709258
0.0709258
0.0709258
0.0709258
0.0709258
0.0709258
0.0709258
0.0709258
0.0709258
0.0709258
0.0709258
0.0709258
0.0709258
0.0709258
0.0709258
0.0709258
0.0709258
0.0709258
0.0709257
0.0709257
0.0709257
0.0709257
0.0709257
0.0709257
0.0709257
0.0709257
0.0709257
0.0709257
0.0709257
0.0709257
0.0709257
0.0709257
0.0709257
0.0709256
0.0709256
0.0709256
0.0709256
0.0709256
0.0709256
0.0709256
0.0709256
0.0709256
0.0709256
0.0709256
0.0709256
0.0709256
0.0709255
0.0709255
0.0709255
0.0709255
0.0709255
0.0709255
0.0709255
0.0709255
0.0709255
0.0709255
0.0709255
0.0709254
0.0709254
0.0709254
0.0709254
0.0709254
0.0709254
0.0709254
0.0709254
0.0709254
0.0709254
0.0709253
0.0709253
0.0709253
0.0709253
0.0709253
0.0709253
0.0709253
0.0709253
0.0709253
0.0709252
0.0709252
0.0709252
0.0709252
0.0709252
0.0709252
0.0709252
0.0709251
0.0709251
0.0709251
0.0709251
0.0709251
0.0709251
0.0709251
0.070925
0.070925
0.070925
0.070925
0.070925
0.070925
0.0709249
0.0709249
0.0709249
0.0709249
0.0709249
0.0709248
0.0709248
0.0709248
0.0709248
0.0709248
0.0709247
0.0709247
0.0709247
0.0709247
0.0709246
0.0709246
0.0709246
0.0709246
0.0709245
0.0709245
0.0709245
0.0709245
0.0709244
0.0709244
0.0709244
0.0709244
0.0709243
0.0709243
0.0709243
0.0709242
0.0709242
0.0709242
0.0709241
0.0709241
0.070924
0.070924
0.070924
0.0709239
0.0709239
0.0709238
0.0709238
0.0709238
0.0709237
0.0709237
0.0709236
0.0709236
0.0709235
0.0709235
0.0709234
0.0709233
0.0709233
0.0709232
0.0709231
0.0709231
0.070923
0.0709229
0.0709229
0.0709228
0.0709227
0.0709226
0.0709225
0.0709224
0.0709223
0.0709222
0.0709221
0.070922
0.0709219
0.0709218
0.0709217
0.0709215
0.0709214
0.0709213
0.0709211
0.0709209
0.0709208
0.0709206
0.0709204
0.0709202
0.07092
0.0709197
0.0709195
0.0709192
0.070919
0.0709187
0.0709183
0.070918
0.0709176
0.0709172
0.0709168
0.0709163
0.0709157
0.0709151
0.0709145
0.0709137
0.0709129
0.0709119
0.0709109
0.0709096
0.0709082
0.0709066
0.0709047
0.0709024
0.0708996
0.0708962
0.0708919
0.0708863
0.0708788
0.0708687
0.0708541
0.0708318
0.0707943
0.0707237
0.0705751
0.0701972
0.0689888
0.0643524
0.0336536
0.016608
0.00819011
0.00404035
0.00199742
0.000990267
0.000492233
0.00024516
0.000122264
6.10216e-05
3.04679e-05
1.5215e-05
7.59821e-06
3.79432e-06
1.89466e-06
9.46042e-07
4.72376e-07
2.35911e-07
1.17846e-07
5.89193e-08
2.95184e-08
1.48298e-08
7.48178e-09
3.76556e-09
2.10535e-09
1.44228e-09
9.17437e-10
5.5106e-10
3.69159e-10
2.82221e-10
2.3888e-10
2.17334e-10
2.06908e-10
1.99187e-10
1.96207e-10
1.93147e-10
1.91843e-10
1.90849e-10
1.90542e-10
1.90196e-10
1.90077e-10
1.89955e-10
1.89898e-10
1.8987e-10
1.89852e-10
1.8984e-10
1.89836e-10
1.89833e-10
1.89831e-10
1.89831e-10
1.89831e-10
1.89831e-10
1.89832e-10
1.89833e-10
1.89834e-10
1.89835e-10
1.89836e-10
1.89836e-10
1.89838e-10
1.89838e-10
1.89839e-10
1.8984e-10
1.89841e-10
1.89841e-10
1.89842e-10
1.89843e-10
1.89844e-10
1.89845e-10
1.89846e-10
1.89848e-10
1.89848e-10
1.89849e-10
1.8985e-10
1.89851e-10
1.89852e-10
1.89853e-10
1.89854e-10
1.89854e-10
1.89855e-10
1.89856e-10
1.89857e-10
1.89858e-10
1.89859e-10
1.8986e-10
1.8986e-10
1.89861e-10
1.89862e-10
1.89863e-10
1.89864e-10
1.89865e-10
1.89866e-10
1.89866e-10
1.89867e-10
1.89868e-10
1.89869e-10
1.8987e-10
1.89871e-10
1.89872e-10
1.89872e-10
1.89874e-10
1.89874e-10
1.89875e-10
1.89876e-10
1.89877e-10
1.89878e-10
1.89879e-10
1.8988e-10
1.89881e-10
1.89882e-10
1.89883e-10
1.89883e-10
1.89885e-10
1.89885e-10
1.89887e-10
1.89888e-10
1.89888e-10
1.89889e-10
1.8989e-10
1.89891e-10
1.89892e-10
1.89893e-10
1.89894e-10
1.89895e-10
1.89896e-10
1.89897e-10
1.89898e-10
1.89899e-10
1.899e-10
1.89901e-10
1.89902e-10
1.89902e-10
1.89903e-10
1.89904e-10
1.89905e-10
1.89906e-10
1.89907e-10
1.89908e-10
1.89909e-10
1.89909e-10
1.8991e-10
1.89911e-10
1.89912e-10
1.89913e-10
1.89914e-10
1.89915e-10
1.89915e-10
1.89916e-10
1.89917e-10
1.89918e-10
1.89919e-10
1.8992e-10
1.89921e-10
1.89921e-10
1.89922e-10
1.89923e-10
1.89924e-10
1.89925e-10
1.89926e-10
1.89927e-10
1.89928e-10
1.89929e-10
1.8993e-10
1.89931e-10
1.89932e-10
1.89933e-10
1.89934e-10
1.89935e-10
1.89936e-10
1.89937e-10
1.89938e-10
1.89939e-10
1.8994e-10
1.89941e-10
1.89942e-10
1.89942e-10
1.89943e-10
1.89944e-10
1.89945e-10
1.89946e-10
1.89947e-10
1.89948e-10
1.89949e-10
1.8995e-10
1.89951e-10
1.89952e-10
1.89953e-10
1.89954e-10
1.89955e-10
1.89956e-10
1.89957e-10
1.89958e-10
1.89959e-10
1.89959e-10
1.8996e-10
1.89961e-10
1.89962e-10
1.89963e-10
1.89964e-10
1.89964e-10
1.89966e-10
1.89966e-10
1.89967e-10
1.89968e-10
1.89969e-10
1.8997e-10
1.89971e-10
1.89971e-10
1.89973e-10
1.89973e-10
1.89974e-10
1.89975e-10
1.89976e-10
1.89977e-10
1.89978e-10
1.89979e-10
1.8998e-10
1.89981e-10
1.89982e-10
1.89982e-10
1.89983e-10
1.89984e-10
1.89985e-10
1.89986e-10
1.89987e-10
1.89988e-10
1.89989e-10
1.8999e-10
1.89991e-10
1.89992e-10
1.89992e-10
1.89993e-10
1.89994e-10
1.89995e-10
1.89996e-10
1.89997e-10
1.89998e-10
1.89999e-10
1.9e-10
1.90001e-10
1.90002e-10
1.90002e-10
1.90003e-10
1.90005e-10
1.90005e-10
1.90006e-10
1.90007e-10
1.90008e-10
)
;

boundaryField
{
    fixedWall
    {
        type            zeroGradient;
    }
    outlet
    {
        type            inletOutlet;
        inletValue      uniform 0;
        value           uniform 1.90008e-10;
    }
    defaultFaces
    {
        type            empty;
    }
}


// ************************************************************************* //
