/*--------------------------------*- C++ -*----------------------------------*\
| =========                 |                                                 |
| \\      /  F ield         | OpenFOAM: The Open Source CFD Toolbox           |
|  \\    /   O peration     | Version:  2406                                  |
|   \\  /    A nd           | Website:  www.openfoam.com                      |
|    \\/     M anipulation  |                                                 |
\*---------------------------------------------------------------------------*/
FoamFile
{
    version     2.0;
    format      ascii;
    arch        "LSB;label=32;scalar=64";
    class       volScalarField;
    location    "4.7";
    object      H2O;
}
// * * * * * * * * * * * * * * * * * * * * * * * * * * * * * * * * * * * * * //

dimensions      [0 0 0 0 0 0 0];

internalField   nonuniform List<scalar> 
1000
(
0.0580663
0.0580663
0.0580664
0.0580664
0.0580664
0.0580664
0.0580664
0.0580664
0.0580664
0.0580664
0.0580664
0.0580664
0.0580664
0.0580664
0.0580665
0.0580665
0.0580665
0.0580665
0.0580665
0.0580665
0.0580665
0.0580665
0.0580665
0.0580666
0.0580666
0.0580666
0.0580666
0.0580666
0.0580666
0.0580666
0.0580666
0.0580667
0.0580667
0.0580667
0.0580667
0.0580667
0.0580667
0.0580667
0.0580667
0.0580667
0.0580668
0.0580668
0.0580668
0.0580668
0.0580668
0.0580668
0.0580668
0.0580668
0.0580668
0.0580668
0.0580668
0.0580668
0.0580668
0.0580668
0.0580669
0.0580669
0.0580669
0.0580669
0.0580669
0.0580669
0.0580669
0.0580669
0.0580669
0.0580669
0.0580669
0.0580669
0.0580669
0.0580669
0.0580669
0.0580669
0.0580669
0.0580669
0.0580669
0.0580669
0.0580669
0.0580669
0.0580669
0.0580669
0.0580669
0.0580669
0.0580669
0.0580669
0.0580669
0.0580669
0.0580669
0.0580669
0.0580669
0.0580669
0.0580669
0.0580669
0.0580669
0.0580669
0.0580669
0.0580669
0.0580669
0.0580669
0.0580669
0.0580669
0.0580669
0.0580669
0.0580669
0.0580669
0.0580669
0.0580669
0.0580669
0.0580669
0.0580669
0.0580669
0.0580669
0.0580669
0.0580669
0.0580669
0.0580669
0.0580669
0.0580669
0.0580669
0.0580669
0.0580669
0.0580669
0.0580669
0.0580669
0.0580669
0.0580669
0.0580669
0.0580669
0.0580669
0.0580669
0.0580669
0.0580669
0.0580669
0.0580669
0.0580669
0.0580669
0.0580669
0.0580669
0.0580669
0.0580669
0.0580669
0.0580669
0.0580669
0.0580669
0.0580669
0.0580669
0.0580669
0.0580669
0.0580669
0.0580669
0.0580669
0.0580669
0.0580669
0.0580669
0.0580669
0.0580669
0.0580669
0.0580669
0.0580669
0.0580669
0.0580669
0.0580669
0.0580669
0.0580669
0.0580669
0.0580669
0.0580669
0.0580669
0.0580669
0.0580669
0.0580669
0.0580669
0.0580669
0.0580669
0.0580669
0.0580669
0.0580669
0.0580669
0.0580669
0.0580669
0.0580669
0.0580669
0.0580669
0.0580669
0.0580669
0.0580669
0.0580669
0.0580669
0.0580669
0.0580669
0.0580669
0.0580669
0.0580669
0.0580669
0.0580669
0.0580669
0.0580669
0.0580669
0.0580669
0.0580669
0.0580669
0.0580669
0.0580669
0.0580669
0.0580669
0.0580669
0.0580669
0.0580669
0.0580669
0.0580669
0.0580669
0.0580669
0.0580669
0.0580669
0.0580669
0.0580669
0.0580669
0.0580669
0.0580669
0.0580669
0.0580669
0.0580669
0.0580669
0.0580669
0.0580669
0.0580669
0.0580669
0.0580669
0.0580669
0.0580669
0.0580669
0.0580669
0.0580669
0.0580669
0.0580669
0.0580669
0.0580669
0.0580669
0.0580669
0.0580669
0.0580669
0.0580669
0.0580669
0.0580669
0.0580669
0.0580669
0.0580669
0.0580669
0.0580669
0.0580669
0.0580669
0.0580669
0.0580669
0.0580669
0.0580669
0.0580668
0.0580668
0.0580668
0.0580668
0.0580668
0.0580668
0.0580668
0.0580668
0.0580668
0.0580668
0.0580668
0.0580668
0.0580668
0.0580668
0.0580668
0.0580668
0.0580668
0.0580668
0.0580668
0.0580668
0.0580668
0.0580668
0.0580668
0.0580668
0.0580668
0.0580668
0.0580668
0.0580668
0.0580668
0.0580668
0.0580668
0.0580668
0.0580668
0.0580668
0.0580668
0.0580668
0.0580668
0.0580668
0.0580668
0.0580668
0.0580668
0.0580668
0.0580668
0.0580668
0.0580668
0.0580668
0.0580668
0.0580668
0.0580668
0.0580668
0.0580668
0.0580668
0.0580668
0.0580668
0.0580668
0.0580668
0.0580668
0.0580668
0.0580668
0.0580668
0.0580668
0.0580668
0.0580668
0.0580668
0.0580668
0.0580668
0.0580668
0.0580668
0.0580668
0.0580668
0.0580668
0.0580668
0.0580668
0.0580668
0.0580668
0.0580668
0.0580668
0.0580668
0.0580668
0.0580668
0.0580668
0.0580668
0.0580668
0.0580668
0.0580668
0.0580668
0.0580668
0.0580668
0.0580668
0.0580668
0.0580668
0.0580668
0.0580668
0.0580668
0.0580668
0.0580668
0.0580668
0.0580668
0.0580668
0.0580668
0.0580668
0.0580668
0.0580668
0.0580668
0.0580668
0.0580668
0.0580668
0.0580668
0.0580668
0.0580668
0.0580668
0.0580668
0.0580667
0.0580667
0.0580667
0.0580667
0.0580667
0.0580667
0.0580667
0.0580667
0.0580667
0.0580667
0.0580667
0.0580667
0.0580667
0.0580667
0.0580667
0.0580667
0.0580667
0.0580667
0.0580667
0.0580667
0.0580667
0.0580667
0.0580667
0.0580667
0.0580667
0.0580667
0.0580667
0.0580667
0.0580667
0.0580667
0.0580667
0.0580667
0.0580667
0.0580667
0.0580667
0.0580667
0.0580667
0.0580667
0.0580667
0.0580667
0.0580667
0.0580667
0.0580667
0.0580667
0.0580667
0.0580667
0.0580667
0.0580667
0.0580667
0.0580667
0.0580667
0.0580667
0.0580667
0.0580667
0.0580667
0.0580667
0.0580667
0.0580667
0.0580667
0.0580667
0.0580667
0.0580667
0.0580667
0.0580667
0.0580667
0.0580667
0.0580667
0.0580667
0.0580667
0.0580667
0.0580666
0.0580666
0.0580666
0.0580666
0.0580666
0.0580666
0.0580666
0.0580666
0.0580666
0.0580666
0.0580666
0.0580666
0.0580666
0.0580666
0.0580666
0.0580666
0.0580666
0.0580666
0.0580666
0.0580666
0.0580666
0.0580666
0.0580666
0.0580666
0.0580666
0.0580666
0.0580666
0.0580666
0.0580666
0.0580666
0.0580666
0.0580666
0.0580666
0.0580666
0.0580666
0.0580666
0.0580666
0.0580666
0.0580666
0.0580666
0.0580666
0.0580666
0.0580666
0.0580666
0.0580666
0.0580666
0.0580666
0.0580666
0.0580666
0.0580665
0.0580665
0.0580665
0.0580665
0.0580665
0.0580665
0.0580665
0.0580665
0.0580665
0.0580665
0.0580665
0.0580665
0.0580665
0.0580665
0.0580665
0.0580665
0.0580665
0.0580665
0.0580665
0.0580665
0.0580665
0.0580665
0.0580665
0.0580665
0.0580665
0.0580665
0.0580665
0.0580665
0.0580665
0.0580665
0.0580665
0.0580665
0.0580665
0.0580665
0.0580665
0.0580664
0.0580664
0.0580664
0.0580664
0.0580664
0.0580664
0.0580664
0.0580664
0.0580664
0.0580664
0.0580664
0.0580664
0.0580664
0.0580664
0.0580664
0.0580664
0.0580664
0.0580664
0.0580664
0.0580664
0.0580664
0.0580664
0.0580664
0.0580664
0.0580664
0.0580664
0.0580664
0.0580663
0.0580663
0.0580663
0.0580663
0.0580663
0.0580663
0.0580663
0.0580663
0.0580663
0.0580663
0.0580663
0.0580663
0.0580663
0.0580663
0.0580663
0.0580663
0.0580663
0.0580663
0.0580663
0.0580663
0.0580663
0.0580662
0.0580662
0.0580662
0.0580662
0.0580662
0.0580662
0.0580662
0.0580662
0.0580662
0.0580662
0.0580662
0.0580662
0.0580662
0.0580662
0.0580662
0.0580662
0.0580662
0.0580661
0.0580661
0.0580661
0.0580661
0.0580661
0.0580661
0.0580661
0.0580661
0.0580661
0.0580661
0.0580661
0.0580661
0.0580661
0.0580661
0.058066
0.058066
0.058066
0.058066
0.058066
0.058066
0.058066
0.058066
0.058066
0.058066
0.058066
0.058066
0.0580659
0.0580659
0.0580659
0.0580659
0.0580659
0.0580659
0.0580659
0.0580659
0.0580659
0.0580659
0.0580658
0.0580658
0.0580658
0.0580658
0.0580658
0.0580658
0.0580658
0.0580658
0.0580658
0.0580657
0.0580657
0.0580657
0.0580657
0.0580657
0.0580657
0.0580657
0.0580657
0.0580656
0.0580656
0.0580656
0.0580656
0.0580656
0.0580656
0.0580655
0.0580655
0.0580655
0.0580655
0.0580655
0.0580655
0.0580654
0.0580654
0.0580654
0.0580654
0.0580654
0.0580653
0.0580653
0.0580653
0.0580653
0.0580653
0.0580652
0.0580652
0.0580652
0.0580652
0.0580651
0.0580651
0.0580651
0.0580651
0.058065
0.058065
0.058065
0.058065
0.0580649
0.0580649
0.0580649
0.0580648
0.0580648
0.0580648
0.0580647
0.0580647
0.0580647
0.0580646
0.0580646
0.0580645
0.0580645
0.0580645
0.0580644
0.0580644
0.0580643
0.0580643
0.0580642
0.0580642
0.0580641
0.058064
0.058064
0.0580639
0.0580639
0.0580638
0.0580637
0.0580637
0.0580636
0.0580635
0.0580634
0.0580633
0.0580632
0.0580632
0.0580631
0.058063
0.0580628
0.0580627
0.0580626
0.0580625
0.0580624
0.0580622
0.0580621
0.0580619
0.0580617
0.0580616
0.0580614
0.0580612
0.058061
0.0580607
0.0580605
0.0580602
0.0580599
0.0580596
0.0580593
0.0580589
0.0580585
0.0580581
0.0580576
0.058057
0.0580564
0.0580558
0.058055
0.0580541
0.0580531
0.0580519
0.0580506
0.058049
0.0580472
0.0580449
0.0580421
0.0580385
0.058034
0.0580279
0.0580196
0.0580076
0.0579894
0.0579586
0.0579009
0.0577792
0.0574698
0.0564805
0.0526847
0.0275519
0.0135969
0.00670517
0.0033078
0.00163527
0.000810723
0.000402987
0.00020071
0.000100096
4.99578e-05
2.49438e-05
1.24564e-05
6.22059e-06
3.10637e-06
1.55114e-06
7.74516e-07
3.8673e-07
1.93139e-07
9.64797e-08
4.82367e-08
2.41664e-08
1.2141e-08
6.12527e-09
3.08283e-09
1.72363e-09
1.18078e-09
7.51098e-10
4.51148e-10
3.02227e-10
2.31052e-10
1.95569e-10
1.7793e-10
1.69394e-10
1.63073e-10
1.60633e-10
1.58128e-10
1.5706e-10
1.56247e-10
1.55995e-10
1.55712e-10
1.55614e-10
1.55515e-10
1.55467e-10
1.55445e-10
1.5543e-10
1.55421e-10
1.55417e-10
1.55414e-10
1.55413e-10
1.55413e-10
1.55413e-10
1.55413e-10
1.55414e-10
1.55415e-10
1.55415e-10
1.55416e-10
1.55417e-10
1.55417e-10
1.55418e-10
1.55419e-10
1.5542e-10
1.5542e-10
1.55421e-10
1.55422e-10
1.55422e-10
1.55423e-10
1.55424e-10
1.55425e-10
1.55425e-10
1.55427e-10
1.55427e-10
1.55428e-10
1.55429e-10
1.55429e-10
1.5543e-10
1.55431e-10
1.55431e-10
1.55432e-10
1.55433e-10
1.55433e-10
1.55434e-10
1.55435e-10
1.55436e-10
1.55436e-10
1.55437e-10
1.55438e-10
1.55438e-10
1.55439e-10
1.5544e-10
1.5544e-10
1.55441e-10
1.55442e-10
1.55443e-10
1.55443e-10
1.55444e-10
1.55445e-10
1.55446e-10
1.55446e-10
1.55447e-10
1.55448e-10
1.55448e-10
1.55449e-10
1.5545e-10
1.55451e-10
1.55451e-10
1.55452e-10
1.55453e-10
1.55454e-10
1.55454e-10
1.55455e-10
1.55456e-10
1.55457e-10
1.55457e-10
1.55458e-10
1.55459e-10
1.5546e-10
1.55461e-10
1.55461e-10
1.55462e-10
1.55463e-10
1.55464e-10
1.55465e-10
1.55465e-10
1.55466e-10
1.55467e-10
1.55467e-10
1.55469e-10
1.55469e-10
1.5547e-10
1.55471e-10
1.55471e-10
1.55472e-10
1.55473e-10
1.55474e-10
1.55474e-10
1.55475e-10
1.55476e-10
1.55477e-10
1.55477e-10
1.55478e-10
1.55479e-10
1.55479e-10
1.5548e-10
1.55481e-10
1.55481e-10
1.55482e-10
1.55483e-10
1.55483e-10
1.55484e-10
1.55485e-10
1.55486e-10
1.55486e-10
1.55487e-10
1.55488e-10
1.55488e-10
1.55489e-10
1.5549e-10
1.55491e-10
1.55492e-10
1.55493e-10
1.55493e-10
1.55494e-10
1.55495e-10
1.55495e-10
1.55496e-10
1.55497e-10
1.55498e-10
1.55499e-10
1.555e-10
1.555e-10
1.55501e-10
1.55502e-10
1.55503e-10
1.55504e-10
1.55504e-10
1.55505e-10
1.55506e-10
1.55506e-10
1.55507e-10
1.55508e-10
1.55509e-10
1.5551e-10
1.55511e-10
1.55511e-10
1.55512e-10
1.55513e-10
1.55514e-10
1.55514e-10
1.55515e-10
1.55516e-10
1.55517e-10
1.55517e-10
1.55518e-10
1.55519e-10
1.5552e-10
1.5552e-10
1.55521e-10
1.55522e-10
1.55522e-10
1.55523e-10
1.55524e-10
1.55524e-10
1.55525e-10
1.55526e-10
1.55527e-10
1.55527e-10
1.55528e-10
1.55529e-10
1.55529e-10
1.5553e-10
1.55531e-10
1.55532e-10
1.55533e-10
1.55533e-10
1.55534e-10
1.55535e-10
1.55536e-10
1.55536e-10
1.55537e-10
1.55538e-10
1.55538e-10
1.55539e-10
1.5554e-10
1.55541e-10
1.55541e-10
1.55542e-10
1.55543e-10
1.55544e-10
1.55544e-10
1.55545e-10
1.55546e-10
1.55547e-10
1.55547e-10
1.55548e-10
1.55549e-10
1.5555e-10
1.55551e-10
1.55551e-10
1.55552e-10
1.55553e-10
1.55553e-10
1.55554e-10
1.55555e-10
1.55556e-10
1.55557e-10
1.55557e-10
1.55558e-10
)
;

boundaryField
{
    fixedWall
    {
        type            zeroGradient;
    }
    outlet
    {
        type            inletOutlet;
        inletValue      uniform 0;
        value           uniform 1.55558e-10;
    }
    defaultFaces
    {
        type            empty;
    }
}


// ************************************************************************* //
