/*--------------------------------*- C++ -*----------------------------------*\
| =========                 |                                                 |
| \\      /  F ield         | OpenFOAM: The Open Source CFD Toolbox           |
|  \\    /   O peration     | Version:  2406                                  |
|   \\  /    A nd           | Website:  www.openfoam.com                      |
|    \\/     M anipulation  |                                                 |
\*---------------------------------------------------------------------------*/
FoamFile
{
    version     2.0;
    format      ascii;
    arch        "LSB;label=32;scalar=64";
    class       volVectorField;
    location    "4.7";
    object      U;
}
// * * * * * * * * * * * * * * * * * * * * * * * * * * * * * * * * * * * * * //

dimensions      [0 1 -1 0 0 0 0];

internalField   nonuniform List<vector> 
1000
(
(-3.25187e-06 0 0)
(-1.57145e-05 0 0)
(-3.92744e-05 0 0)
(-6.99876e-05 0 0)
(-0.000105938 0 0)
(-0.000145962 0 0)
(-0.000189231 0 0)
(-0.000235091 0 0)
(-0.000283017 0 0)
(-0.000332584 0 0)
(-0.000383447 0 0)
(-0.000435317 0 0)
(-0.000487954 0 0)
(-0.00054115 0 0)
(-0.000594728 0 0)
(-0.000648535 0 0)
(-0.000702436 0 0)
(-0.000756311 0 0)
(-0.000810057 0 0)
(-0.00086358 0 0)
(-0.000916797 0 0)
(-0.000969633 0 0)
(-0.00102202 0 0)
(-0.0010739 0 0)
(-0.00112522 0 0)
(-0.00117593 0 0)
(-0.00122599 0 0)
(-0.00127535 0 0)
(-0.00132398 0 0)
(-0.00137185 0 0)
(-0.00141893 0 0)
(-0.0014652 0 0)
(-0.00151063 0 0)
(-0.00155521 0 0)
(-0.00159891 0 0)
(-0.00164173 0 0)
(-0.00168365 0 0)
(-0.00172466 0 0)
(-0.00176475 0 0)
(-0.00180392 0 0)
(-0.00184217 0 0)
(-0.00187948 0 0)
(-0.00191586 0 0)
(-0.00195131 0 0)
(-0.00198583 0 0)
(-0.00201942 0 0)
(-0.00205209 0 0)
(-0.00208384 0 0)
(-0.00211469 0 0)
(-0.00214463 0 0)
(-0.00217367 0 0)
(-0.00220183 0 0)
(-0.00222911 0 0)
(-0.00225553 0 0)
(-0.0022811 0 0)
(-0.00230582 0 0)
(-0.00232972 0 0)
(-0.00235281 0 0)
(-0.00237509 0 0)
(-0.00239659 0 0)
(-0.00241732 0 0)
(-0.0024373 0 0)
(-0.00245653 0 0)
(-0.00247504 0 0)
(-0.00249285 0 0)
(-0.00250996 0 0)
(-0.0025264 0 0)
(-0.00254218 0 0)
(-0.00255732 0 0)
(-0.00257183 0 0)
(-0.00258574 0 0)
(-0.00259906 0 0)
(-0.00261181 0 0)
(-0.002624 0 0)
(-0.00263565 0 0)
(-0.00264678 0 0)
(-0.0026574 0 0)
(-0.00266753 0 0)
(-0.00267719 0 0)
(-0.00268639 0 0)
(-0.00269514 0 0)
(-0.00270348 0 0)
(-0.0027114 0 0)
(-0.00271892 0 0)
(-0.00272607 0 0)
(-0.00273285 0 0)
(-0.00273928 0 0)
(-0.00274537 0 0)
(-0.00275113 0 0)
(-0.00275659 0 0)
(-0.00276173 0 0)
(-0.00276664 0 0)
(-0.00277126 0 0)
(-0.00277555 0 0)
(-0.00277965 0 0)
(-0.00278351 0 0)
(-0.00278717 0 0)
(-0.00279054 0 0)
(-0.00279369 0 0)
(-0.00279672 0 0)
(-0.00279955 0 0)
(-0.00280221 0 0)
(-0.00280469 0 0)
(-0.00280701 0 0)
(-0.00280919 0 0)
(-0.00281122 0 0)
(-0.00281311 0 0)
(-0.00281488 0 0)
(-0.00281653 0 0)
(-0.00281806 0 0)
(-0.00281948 0 0)
(-0.00282081 0 0)
(-0.00282204 0 0)
(-0.00282317 0 0)
(-0.00282423 0 0)
(-0.0028252 0 0)
(-0.0028261 0 0)
(-0.00282693 0 0)
(-0.0028277 0 0)
(-0.0028284 0 0)
(-0.00282905 0 0)
(-0.00282964 0 0)
(-0.00283018 0 0)
(-0.00283068 0 0)
(-0.00283113 0 0)
(-0.00283154 0 0)
(-0.00283192 0 0)
(-0.00283226 0 0)
(-0.00283256 0 0)
(-0.00283283 0 0)
(-0.00283311 0 0)
(-0.00283331 0 0)
(-0.00283349 0 0)
(-0.00283369 0 0)
(-0.00283383 0 0)
(-0.00283398 0 0)
(-0.00283409 0 0)
(-0.0028342 0 0)
(-0.00283429 0 0)
(-0.00283436 0 0)
(-0.00283443 0 0)
(-0.00283448 0 0)
(-0.00283452 0 0)
(-0.00283455 0 0)
(-0.00283458 0 0)
(-0.00283459 0 0)
(-0.0028346 0 0)
(-0.00283461 0 0)
(-0.0028346 0 0)
(-0.0028346 0 0)
(-0.00283458 0 0)
(-0.00283457 0 0)
(-0.00283455 0 0)
(-0.00283452 0 0)
(-0.0028345 0 0)
(-0.00283447 0 0)
(-0.00283444 0 0)
(-0.00283441 0 0)
(-0.00283437 0 0)
(-0.00283434 0 0)
(-0.0028343 0 0)
(-0.00283426 0 0)
(-0.00283422 0 0)
(-0.00283418 0 0)
(-0.00283414 0 0)
(-0.0028341 0 0)
(-0.00283406 0 0)
(-0.00283402 0 0)
(-0.00283398 0 0)
(-0.00283394 0 0)
(-0.0028339 0 0)
(-0.00283386 0 0)
(-0.00283382 0 0)
(-0.00283378 0 0)
(-0.00283375 0 0)
(-0.00283371 0 0)
(-0.00283367 0 0)
(-0.00283363 0 0)
(-0.00283359 0 0)
(-0.00283356 0 0)
(-0.00283352 0 0)
(-0.00283349 0 0)
(-0.00283345 0 0)
(-0.00283342 0 0)
(-0.00283338 0 0)
(-0.00283335 0 0)
(-0.00283332 0 0)
(-0.00283329 0 0)
(-0.00283325 0 0)
(-0.00283322 0 0)
(-0.00283319 0 0)
(-0.00283316 0 0)
(-0.00283314 0 0)
(-0.00283311 0 0)
(-0.00283308 0 0)
(-0.00283305 0 0)
(-0.00283303 0 0)
(-0.002833 0 0)
(-0.00283298 0 0)
(-0.00283295 0 0)
(-0.00283293 0 0)
(-0.00283291 0 0)
(-0.00283288 0 0)
(-0.00283286 0 0)
(-0.00283284 0 0)
(-0.00283282 0 0)
(-0.0028328 0 0)
(-0.00283278 0 0)
(-0.00283276 0 0)
(-0.00283274 0 0)
(-0.00283273 0 0)
(-0.00283271 0 0)
(-0.00283269 0 0)
(-0.00283268 0 0)
(-0.00283266 0 0)
(-0.00283265 0 0)
(-0.00283263 0 0)
(-0.00283262 0 0)
(-0.00283261 0 0)
(-0.0028326 0 0)
(-0.00283259 0 0)
(-0.00283257 0 0)
(-0.00283256 0 0)
(-0.00283256 0 0)
(-0.00283255 0 0)
(-0.00283254 0 0)
(-0.00283253 0 0)
(-0.00283252 0 0)
(-0.00283252 0 0)
(-0.00283251 0 0)
(-0.00283251 0 0)
(-0.0028325 0 0)
(-0.0028325 0 0)
(-0.0028325 0 0)
(-0.0028325 0 0)
(-0.00283249 0 0)
(-0.00283249 0 0)
(-0.00283249 0 0)
(-0.00283249 0 0)
(-0.0028325 0 0)
(-0.0028325 0 0)
(-0.0028325 0 0)
(-0.0028325 0 0)
(-0.00283251 0 0)
(-0.00283251 0 0)
(-0.00283252 0 0)
(-0.00283253 0 0)
(-0.00283253 0 0)
(-0.00283254 0 0)
(-0.00283255 0 0)
(-0.00283256 0 0)
(-0.00283257 0 0)
(-0.00283258 0 0)
(-0.00283259 0 0)
(-0.00283261 0 0)
(-0.00283262 0 0)
(-0.00283263 0 0)
(-0.00283265 0 0)
(-0.00283266 0 0)
(-0.00283268 0 0)
(-0.0028327 0 0)
(-0.00283272 0 0)
(-0.00283274 0 0)
(-0.00283276 0 0)
(-0.00283278 0 0)
(-0.0028328 0 0)
(-0.00283282 0 0)
(-0.00283285 0 0)
(-0.00283287 0 0)
(-0.0028329 0 0)
(-0.00283293 0 0)
(-0.00283295 0 0)
(-0.00283298 0 0)
(-0.00283301 0 0)
(-0.00283304 0 0)
(-0.00283307 0 0)
(-0.00283311 0 0)
(-0.00283314 0 0)
(-0.00283317 0 0)
(-0.00283321 0 0)
(-0.00283325 0 0)
(-0.00283329 0 0)
(-0.00283332 0 0)
(-0.00283336 0 0)
(-0.00283341 0 0)
(-0.00283345 0 0)
(-0.00283349 0 0)
(-0.00283353 0 0)
(-0.00283358 0 0)
(-0.00283363 0 0)
(-0.00283367 0 0)
(-0.00283372 0 0)
(-0.00283377 0 0)
(-0.00283382 0 0)
(-0.00283388 0 0)
(-0.00283393 0 0)
(-0.00283398 0 0)
(-0.00283404 0 0)
(-0.0028341 0 0)
(-0.00283415 0 0)
(-0.00283421 0 0)
(-0.00283427 0 0)
(-0.00283433 0 0)
(-0.0028344 0 0)
(-0.00283446 0 0)
(-0.00283452 0 0)
(-0.00283459 0 0)
(-0.00283466 0 0)
(-0.00283473 0 0)
(-0.0028348 0 0)
(-0.00283487 0 0)
(-0.00283494 0 0)
(-0.00283501 0 0)
(-0.00283508 0 0)
(-0.00283516 0 0)
(-0.00283524 0 0)
(-0.00283531 0 0)
(-0.00283539 0 0)
(-0.00283547 0 0)
(-0.00283555 0 0)
(-0.00283563 0 0)
(-0.00283572 0 0)
(-0.0028358 0 0)
(-0.00283589 0 0)
(-0.00283597 0 0)
(-0.00283606 0 0)
(-0.00283615 0 0)
(-0.00283624 0 0)
(-0.00283633 0 0)
(-0.00283642 0 0)
(-0.00283652 0 0)
(-0.00283661 0 0)
(-0.00283671 0 0)
(-0.0028368 0 0)
(-0.0028369 0 0)
(-0.002837 0 0)
(-0.0028371 0 0)
(-0.0028372 0 0)
(-0.00283731 0 0)
(-0.00283741 0 0)
(-0.00283752 0 0)
(-0.00283762 0 0)
(-0.00283773 0 0)
(-0.00283784 0 0)
(-0.00283795 0 0)
(-0.00283806 0 0)
(-0.00283817 0 0)
(-0.00283829 0 0)
(-0.0028384 0 0)
(-0.00283852 0 0)
(-0.00283864 0 0)
(-0.00283875 0 0)
(-0.00283887 0 0)
(-0.002839 0 0)
(-0.00283912 0 0)
(-0.00283924 0 0)
(-0.00283937 0 0)
(-0.0028395 0 0)
(-0.00283962 0 0)
(-0.00283975 0 0)
(-0.00283989 0 0)
(-0.00284002 0 0)
(-0.00284015 0 0)
(-0.00284029 0 0)
(-0.00284043 0 0)
(-0.00284056 0 0)
(-0.0028407 0 0)
(-0.00284085 0 0)
(-0.00284099 0 0)
(-0.00284113 0 0)
(-0.00284128 0 0)
(-0.00284143 0 0)
(-0.00284158 0 0)
(-0.00284173 0 0)
(-0.00284188 0 0)
(-0.00284203 0 0)
(-0.00284219 0 0)
(-0.00284235 0 0)
(-0.00284251 0 0)
(-0.00284267 0 0)
(-0.00284283 0 0)
(-0.00284299 0 0)
(-0.00284316 0 0)
(-0.00284332 0 0)
(-0.00284349 0 0)
(-0.00284366 0 0)
(-0.00284383 0 0)
(-0.00284401 0 0)
(-0.00284418 0 0)
(-0.00284436 0 0)
(-0.00284454 0 0)
(-0.00284471 0 0)
(-0.0028449 0 0)
(-0.00284508 0 0)
(-0.00284526 0 0)
(-0.00284545 0 0)
(-0.00284563 0 0)
(-0.00284582 0 0)
(-0.00284601 0 0)
(-0.0028462 0 0)
(-0.00284639 0 0)
(-0.00284659 0 0)
(-0.00284678 0 0)
(-0.00284698 0 0)
(-0.00284717 0 0)
(-0.00284737 0 0)
(-0.00284757 0 0)
(-0.00284777 0 0)
(-0.00284797 0 0)
(-0.00284817 0 0)
(-0.00284838 0 0)
(-0.00284858 0 0)
(-0.00284879 0 0)
(-0.00284899 0 0)
(-0.0028492 0 0)
(-0.00284941 0 0)
(-0.00284961 0 0)
(-0.00284982 0 0)
(-0.00285003 0 0)
(-0.00285024 0 0)
(-0.00285045 0 0)
(-0.00285067 0 0)
(-0.00285088 0 0)
(-0.00285109 0 0)
(-0.0028513 0 0)
(-0.00285152 0 0)
(-0.00285173 0 0)
(-0.00285195 0 0)
(-0.00285216 0 0)
(-0.00285238 0 0)
(-0.0028526 0 0)
(-0.00285282 0 0)
(-0.00285303 0 0)
(-0.00285325 0 0)
(-0.00285347 0 0)
(-0.0028537 0 0)
(-0.00285392 0 0)
(-0.00285414 0 0)
(-0.00285437 0 0)
(-0.00285459 0 0)
(-0.00285482 0 0)
(-0.00285505 0 0)
(-0.00285527 0 0)
(-0.00285551 0 0)
(-0.00285574 0 0)
(-0.00285597 0 0)
(-0.0028562 0 0)
(-0.00285644 0 0)
(-0.00285668 0 0)
(-0.00285692 0 0)
(-0.00285716 0 0)
(-0.00285741 0 0)
(-0.00285765 0 0)
(-0.0028579 0 0)
(-0.00285815 0 0)
(-0.0028584 0 0)
(-0.00285866 0 0)
(-0.00285891 0 0)
(-0.00285917 0 0)
(-0.00285943 0 0)
(-0.0028597 0 0)
(-0.00285996 0 0)
(-0.00286023 0 0)
(-0.0028605 0 0)
(-0.00286078 0 0)
(-0.00286105 0 0)
(-0.00286133 0 0)
(-0.00286161 0 0)
(-0.00286189 0 0)
(-0.00286218 0 0)
(-0.00286246 0 0)
(-0.00286275 0 0)
(-0.00286304 0 0)
(-0.00286334 0 0)
(-0.00286363 0 0)
(-0.00286393 0 0)
(-0.00286423 0 0)
(-0.00286453 0 0)
(-0.00286483 0 0)
(-0.00286513 0 0)
(-0.00286544 0 0)
(-0.00286575 0 0)
(-0.00286606 0 0)
(-0.00286637 0 0)
(-0.00286668 0 0)
(-0.00286699 0 0)
(-0.00286731 0 0)
(-0.00286762 0 0)
(-0.00286794 0 0)
(-0.00286826 0 0)
(-0.00286858 0 0)
(-0.0028689 0 0)
(-0.00286922 0 0)
(-0.00286954 0 0)
(-0.00286987 0 0)
(-0.00287019 0 0)
(-0.00287052 0 0)
(-0.00287085 0 0)
(-0.00287118 0 0)
(-0.00287151 0 0)
(-0.00287184 0 0)
(-0.00287217 0 0)
(-0.0028725 0 0)
(-0.00287284 0 0)
(-0.00287317 0 0)
(-0.00287351 0 0)
(-0.00287385 0 0)
(-0.00287419 0 0)
(-0.00287453 0 0)
(-0.00287487 0 0)
(-0.00287521 0 0)
(-0.00287556 0 0)
(-0.0028759 0 0)
(-0.00287625 0 0)
(-0.0028766 0 0)
(-0.00287695 0 0)
(-0.0028773 0 0)
(-0.00287766 0 0)
(-0.00287801 0 0)
(-0.00287837 0 0)
(-0.00287873 0 0)
(-0.00287909 0 0)
(-0.00287945 0 0)
(-0.00287981 0 0)
(-0.00288018 0 0)
(-0.00288055 0 0)
(-0.00288092 0 0)
(-0.00288129 0 0)
(-0.00288166 0 0)
(-0.00288204 0 0)
(-0.00288241 0 0)
(-0.00288279 0 0)
(-0.00288317 0 0)
(-0.00288356 0 0)
(-0.00288394 0 0)
(-0.00288433 0 0)
(-0.00288472 0 0)
(-0.00288511 0 0)
(-0.00288551 0 0)
(-0.00288591 0 0)
(-0.0028863 0 0)
(-0.00288671 0 0)
(-0.00288711 0 0)
(-0.00288752 0 0)
(-0.00288793 0 0)
(-0.00288834 0 0)
(-0.00288875 0 0)
(-0.00288917 0 0)
(-0.00288959 0 0)
(-0.00289001 0 0)
(-0.00289044 0 0)
(-0.00289086 0 0)
(-0.00289129 0 0)
(-0.00289172 0 0)
(-0.00289215 0 0)
(-0.00289259 0 0)
(-0.00289303 0 0)
(-0.00289346 0 0)
(-0.0028939 0 0)
(-0.00289435 0 0)
(-0.00289479 0 0)
(-0.00289523 0 0)
(-0.00289568 0 0)
(-0.00289613 0 0)
(-0.00289658 0 0)
(-0.00289703 0 0)
(-0.00289747 0 0)
(-0.00289793 0 0)
(-0.00289838 0 0)
(-0.00289883 0 0)
(-0.00289928 0 0)
(-0.00289973 0 0)
(-0.00290018 0 0)
(-0.00290063 0 0)
(-0.00290108 0 0)
(-0.00290153 0 0)
(-0.00290198 0 0)
(-0.00290244 0 0)
(-0.00290289 0 0)
(-0.00290333 0 0)
(-0.00290378 0 0)
(-0.00290423 0 0)
(-0.00290468 0 0)
(-0.00290513 0 0)
(-0.00290558 0 0)
(-0.00290603 0 0)
(-0.00290648 0 0)
(-0.00290693 0 0)
(-0.00290738 0 0)
(-0.00290784 0 0)
(-0.00290829 0 0)
(-0.00290875 0 0)
(-0.0029092 0 0)
(-0.00290966 0 0)
(-0.00291012 0 0)
(-0.00291059 0 0)
(-0.00291105 0 0)
(-0.00291152 0 0)
(-0.002912 0 0)
(-0.00291247 0 0)
(-0.00291295 0 0)
(-0.00291344 0 0)
(-0.00291393 0 0)
(-0.00291442 0 0)
(-0.00291492 0 0)
(-0.00291542 0 0)
(-0.00291592 0 0)
(-0.00291644 0 0)
(-0.00291695 0 0)
(-0.00291747 0 0)
(-0.002918 0 0)
(-0.00291853 0 0)
(-0.00291907 0 0)
(-0.00291961 0 0)
(-0.00292016 0 0)
(-0.00292071 0 0)
(-0.00292126 0 0)
(-0.00292183 0 0)
(-0.00292239 0 0)
(-0.00292297 0 0)
(-0.00292354 0 0)
(-0.00292412 0 0)
(-0.00292471 0 0)
(-0.0029253 0 0)
(-0.00292589 0 0)
(-0.00292649 0 0)
(-0.00292709 0 0)
(-0.0029277 0 0)
(-0.00292831 0 0)
(-0.00292892 0 0)
(-0.00292953 0 0)
(-0.00293014 0 0)
(-0.00293075 0 0)
(-0.00293137 0 0)
(-0.00293198 0 0)
(-0.0029326 0 0)
(-0.00293321 0 0)
(-0.00293382 0 0)
(-0.00293442 0 0)
(-0.00293503 0 0)
(-0.00293562 0 0)
(-0.00293622 0 0)
(-0.00293681 0 0)
(-0.00293739 0 0)
(-0.00293797 0 0)
(-0.00293854 0 0)
(-0.0029391 0 0)
(-0.00293966 0 0)
(-0.00294021 0 0)
(-0.00294076 0 0)
(-0.00294129 0 0)
(-0.00294183 0 0)
(-0.00294235 0 0)
(-0.00294287 0 0)
(-0.00294339 0 0)
(-0.0029439 0 0)
(-0.00294441 0 0)
(-0.00294492 0 0)
(-0.00294542 0 0)
(-0.00294593 0 0)
(-0.00294644 0 0)
(-0.00294695 0 0)
(-0.00294746 0 0)
(-0.00294799 0 0)
(-0.00294851 0 0)
(-0.00294905 0 0)
(-0.00294959 0 0)
(-0.00295015 0 0)
(-0.00295072 0 0)
(-0.0029513 0 0)
(-0.00295189 0 0)
(-0.0029525 0 0)
(-0.00295312 0 0)
(-0.00295375 0 0)
(-0.0029544 0 0)
(-0.00295507 0 0)
(-0.00295574 0 0)
(-0.00295644 0 0)
(-0.00295714 0 0)
(-0.00295786 0 0)
(-0.00295859 0 0)
(-0.00295932 0 0)
(-0.00296006 0 0)
(-0.00296081 0 0)
(-0.00296156 0 0)
(-0.00296231 0 0)
(-0.00296305 0 0)
(-0.00296379 0 0)
(-0.00296451 0 0)
(-0.00296523 0 0)
(-0.00296593 0 0)
(-0.00296662 0 0)
(-0.00296728 0 0)
(-0.00296793 0 0)
(-0.00296855 0 0)
(-0.00296916 0 0)
(-0.00296974 0 0)
(-0.00297031 0 0)
(-0.00297087 0 0)
(-0.00297142 0 0)
(-0.00297196 0 0)
(-0.00297251 0 0)
(-0.00297305 0 0)
(-0.00297361 0 0)
(-0.00297417 0 0)
(-0.00297475 0 0)
(-0.00297533 0 0)
(-0.00297593 0 0)
(-0.00297652 0 0)
(-0.00297712 0 0)
(-0.00297769 0 0)
(-0.00297825 0 0)
(-0.00297877 0 0)
(-0.00297923 0 0)
(-0.00297967 0 0)
(-0.00298002 0 0)
(-0.00298031 0 0)
(-0.00298053 0 0)
(-0.00298069 0 0)
(-0.00298079 0 0)
(-0.00298085 0 0)
(-0.00298089 0 0)
(-0.00298094 0 0)
(-0.00298099 0 0)
(-0.00298114 0 0)
(-0.00298131 0 0)
(-0.00298167 0 0)
(-0.00298207 0 0)
(-0.00298256 0 0)
(-0.00298318 0 0)
(-0.00298373 0 0)
(-0.00298429 0 0)
(-0.00298434 0 0)
(-0.00298415 0 0)
(-0.00298416 0 0)
(-0.00298234 0 0)
(-0.00298076 0 0)
(-0.0029781 0 0)
(-0.00297409 0 0)
(-0.00297047 0 0)
(-0.00296571 0 0)
(-0.0029606 0 0)
(-0.00295487 0 0)
(-0.00294723 0 0)
(-0.00293344 0 0)
(-0.00290812 0 0)
(-0.00287434 0 0)
(-0.00277147 0 0)
(-0.00264062 0 0)
(-0.00210149 0 0)
(-0.00208716 0 0)
(0.00112233 0 0)
(0.0225405 0 0)
(0.0577769 0 0)
(0.0848625 0 0)
(0.100304 0 0)
(0.108202 0 0)
(0.111958 0 0)
(0.113647 0 0)
(0.114469 0 0)
(0.114836 0 0)
(0.115052 0 0)
(0.115178 0 0)
(0.115227 0 0)
(0.115192 0 0)
(0.115298 0 0)
(0.115259 0 0)
(0.115265 0 0)
(0.115216 0 0)
(0.115325 0 0)
(0.11531 0 0)
(0.115154 0 0)
(0.115328 0 0)
(0.115312 0 0)
(0.115178 0 0)
(0.11528 0 0)
(0.115312 0 0)
(0.115236 0 0)
(0.115248 0 0)
(0.115267 0 0)
(0.115256 0 0)
(0.115247 0 0)
(0.115286 0 0)
(0.115203 0 0)
(0.115288 0 0)
(0.115284 0 0)
(0.115186 0 0)
(0.115278 0 0)
(0.11528 0 0)
(0.115245 0 0)
(0.115192 0 0)
(0.115268 0 0)
(0.115289 0 0)
(0.115213 0 0)
(0.115232 0 0)
(0.115261 0 0)
(0.115266 0 0)
(0.115178 0 0)
(0.115272 0 0)
(0.115266 0 0)
(0.115243 0 0)
(0.115169 0 0)
(0.115251 0 0)
(0.115292 0 0)
(0.115184 0 0)
(0.115256 0 0)
(0.11522 0 0)
(0.115253 0 0)
(0.1152 0 0)
(0.115253 0 0)
(0.115242 0 0)
(0.115243 0 0)
(0.11516 0 0)
(0.115237 0 0)
(0.115298 0 0)
(0.115194 0 0)
(0.115173 0 0)
(0.115255 0 0)
(0.115234 0 0)
(0.115193 0 0)
(0.11527 0 0)
(0.11518 0 0)
(0.115239 0 0)
(0.115186 0 0)
(0.115252 0 0)
(0.115207 0 0)
(0.115225 0 0)
(0.11522 0 0)
(0.115176 0 0)
(0.115266 0 0)
(0.115162 0 0)
(0.115247 0 0)
(0.115194 0 0)
(0.115223 0 0)
(0.115215 0 0)
(0.115219 0 0)
(0.115169 0 0)
(0.115205 0 0)
(0.115257 0 0)
(0.115205 0 0)
(0.115142 0 0)
(0.115233 0 0)
(0.115253 0 0)
(0.115152 0 0)
(0.115225 0 0)
(0.115189 0 0)
(0.11525 0 0)
(0.115132 0 0)
(0.115243 0 0)
(0.115231 0 0)
(0.115138 0 0)
(0.115238 0 0)
(0.115221 0 0)
(0.115136 0 0)
(0.115209 0 0)
(0.115253 0 0)
(0.115152 0 0)
(0.115199 0 0)
(0.115195 0 0)
(0.115212 0 0)
(0.115155 0 0)
(0.115223 0 0)
(0.115219 0 0)
(0.115143 0 0)
(0.11523 0 0)
(0.115147 0 0)
(0.115216 0 0)
(0.115219 0 0)
(0.115143 0 0)
(0.115202 0 0)
(0.115209 0 0)
(0.115167 0 0)
(0.115188 0 0)
(0.115206 0 0)
(0.115146 0 0)
(0.115203 0 0)
(0.115251 0 0)
(0.115075 0 0)
(0.115214 0 0)
(0.115238 0 0)
(0.115128 0 0)
(0.11521 0 0)
(0.11517 0 0)
(0.11518 0 0)
(0.115176 0 0)
(0.115203 0 0)
(0.115145 0 0)
(0.115196 0 0)
(0.115221 0 0)
(0.115098 0 0)
(0.115225 0 0)
(0.115214 0 0)
(0.115123 0 0)
(0.11519 0 0)
(0.115169 0 0)
(0.115178 0 0)
(0.1152 0 0)
(0.115134 0 0)
(0.11518 0 0)
(0.115229 0 0)
(0.115134 0 0)
(0.11513 0 0)
(0.115197 0 0)
(0.11521 0 0)
(0.115136 0 0)
(0.115196 0 0)
(0.115133 0 0)
(0.115185 0 0)
(0.115194 0 0)
(0.115151 0 0)
(0.115196 0 0)
(0.115114 0 0)
(0.115194 0 0)
(0.11521 0 0)
(0.11516 0 0)
(0.115094 0 0)
(0.115198 0 0)
(0.11522 0 0)
(0.115104 0 0)
(0.115203 0 0)
(0.115146 0 0)
(0.115177 0 0)
(0.115181 0 0)
(0.115132 0 0)
(0.115183 0 0)
(0.115138 0 0)
(0.115187 0 0)
(0.115197 0 0)
(0.115112 0 0)
(0.115193 0 0)
(0.115124 0 0)
(0.115192 0 0)
(0.115196 0 0)
(0.115108 0 0)
(0.115193 0 0)
(0.115123 0 0)
(0.115191 0 0)
(0.115194 0 0)
(0.115108 0 0)
(0.115177 0 0)
(0.115193 0 0)
(0.115093 0 0)
(0.115182 0 0)
(0.115226 0 0)
(0.115122 0 0)
(0.115087 0 0)
(0.115205 0 0)
(0.115206 0 0)
(0.115096 0 0)
(0.115191 0 0)
(0.115142 0 0)
(0.115183 0 0)
(0.115107 0 0)
(0.115201 0 0)
(0.115194 0 0)
(0.115063 0 0)
(0.115204 0 0)
(0.115194 0 0)
(0.115118 0 0)
(0.115154 0 0)
(0.115179 0 0)
(0.1151 0 0)
(0.115216 0 0)
(0.115188 0 0)
(0.11505 0 0)
(0.115219 0 0)
(0.115185 0 0)
(0.115146 0 0)
(0.115087 0 0)
(0.115179 0 0)
(0.115224 0 0)
(0.115063 0 0)
(0.115195 0 0)
(0.115183 0 0)
(0.115123 0 0)
(0.115175 0 0)
(0.115113 0 0)
(0.115181 0 0)
(0.115186 0 0)
(0.115106 0 0)
(0.115185 0 0)
(0.115109 0 0)
(0.115186 0 0)
(0.11519 0 0)
(0.115096 0 0)
(0.115172 0 0)
(0.115173 0 0)
(0.115118 0 0)
(0.115187 0 0)
(0.115137 0 0)
(0.115134 0 0)
(0.11521 0 0)
(0.11508 0 0)
(0.115196 0 0)
(0.115198 0 0)
(0.115059 0 0)
(0.115196 0 0)
(0.115185 0 0)
(0.115123 0 0)
(0.115149 0 0)
)
;

boundaryField
{
    fixedWall
    {
        type            fixedValue;
        value           uniform (0 0 0);
    }
    outlet
    {
        type            pressureInletOutletVelocity;
        value           uniform (0.115149 0 0);
    }
    defaultFaces
    {
        type            empty;
    }
}


// ************************************************************************* //
