/*--------------------------------*- C++ -*----------------------------------*\
| =========                 |                                                 |
| \\      /  F ield         | OpenFOAM: The Open Source CFD Toolbox           |
|  \\    /   O peration     | Version:  2406                                  |
|   \\  /    A nd           | Website:  www.openfoam.com                      |
|    \\/     M anipulation  |                                                 |
\*---------------------------------------------------------------------------*/
FoamFile
{
    version     2.0;
    format      ascii;
    arch        "LSB;label=32;scalar=64";
    class       volScalarField;
    location    "11.7";
    object      O2;
}
// * * * * * * * * * * * * * * * * * * * * * * * * * * * * * * * * * * * * * //

dimensions      [0 0 0 0 0 0 0];

internalField   nonuniform List<scalar> 
1000
(
1.08568e-06
1.08402e-06
1.08098e-06
1.07678e-06
1.07158e-06
1.06551e-06
1.05867e-06
1.05114e-06
1.04301e-06
1.03432e-06
1.02513e-06
1.0155e-06
1.00546e-06
9.95049e-07
9.84304e-07
9.73253e-07
9.61927e-07
9.50351e-07
9.3855e-07
9.26546e-07
9.1436e-07
9.02012e-07
8.89521e-07
8.76905e-07
8.64179e-07
8.51362e-07
8.38467e-07
8.2551e-07
8.12505e-07
7.99466e-07
7.86407e-07
7.73339e-07
7.60277e-07
7.47231e-07
7.34215e-07
7.21239e-07
7.08316e-07
6.95456e-07
6.8267e-07
6.69969e-07
6.57362e-07
6.44859e-07
6.32471e-07
6.20205e-07
6.0807e-07
5.96076e-07
5.84229e-07
5.72537e-07
5.61007e-07
5.49645e-07
5.38459e-07
5.27452e-07
5.16631e-07
5.06e-07
4.95563e-07
4.85325e-07
4.75287e-07
4.65453e-07
4.55826e-07
4.46407e-07
4.37198e-07
4.28199e-07
4.19412e-07
4.10837e-07
4.02472e-07
3.94319e-07
3.86377e-07
3.78643e-07
3.71117e-07
3.63797e-07
3.5668e-07
3.49766e-07
3.43051e-07
3.36533e-07
3.30209e-07
3.24076e-07
3.18131e-07
3.12371e-07
3.06792e-07
3.0139e-07
2.96164e-07
2.91108e-07
2.86219e-07
2.81493e-07
2.76927e-07
2.72517e-07
2.68259e-07
2.64149e-07
2.60184e-07
2.56359e-07
2.52672e-07
2.49118e-07
2.45693e-07
2.42394e-07
2.39217e-07
2.36159e-07
2.33216e-07
2.30385e-07
2.27663e-07
2.25045e-07
2.22529e-07
2.20111e-07
2.17788e-07
2.15558e-07
2.13417e-07
2.11363e-07
2.09391e-07
2.075e-07
2.05687e-07
2.03949e-07
2.02284e-07
2.00689e-07
1.99161e-07
1.97698e-07
1.96298e-07
1.94959e-07
1.93678e-07
1.92454e-07
1.91283e-07
1.90165e-07
1.89097e-07
1.88078e-07
1.87105e-07
1.86177e-07
1.85292e-07
1.84448e-07
1.83644e-07
1.82879e-07
1.8215e-07
1.81457e-07
1.80798e-07
1.80172e-07
1.79577e-07
1.79012e-07
1.78476e-07
1.77968e-07
1.77486e-07
1.77031e-07
1.76599e-07
1.76192e-07
1.75807e-07
1.75443e-07
1.75101e-07
1.74778e-07
1.74474e-07
1.74189e-07
1.73921e-07
1.7367e-07
1.73435e-07
1.73216e-07
1.73011e-07
1.72821e-07
1.72644e-07
1.7248e-07
1.72328e-07
1.72189e-07
1.7206e-07
1.71943e-07
1.71835e-07
1.71738e-07
1.7165e-07
1.71572e-07
1.71502e-07
1.7144e-07
1.71387e-07
1.71341e-07
1.71302e-07
1.7127e-07
1.71244e-07
1.71225e-07
1.71213e-07
1.71205e-07
1.71204e-07
1.71207e-07
1.71216e-07
1.71229e-07
1.71247e-07
1.71269e-07
1.71295e-07
1.71326e-07
1.7136e-07
1.71398e-07
1.71439e-07
1.71483e-07
1.71531e-07
1.71581e-07
1.71635e-07
1.71691e-07
1.7175e-07
1.71811e-07
1.71874e-07
1.7194e-07
1.72008e-07
1.72078e-07
1.7215e-07
1.72223e-07
1.72299e-07
1.72376e-07
1.72455e-07
1.72535e-07
1.72617e-07
1.727e-07
1.72784e-07
1.7287e-07
1.72957e-07
1.73045e-07
1.73134e-07
1.73224e-07
1.73316e-07
1.73408e-07
1.73501e-07
1.73594e-07
1.73689e-07
1.73785e-07
1.73881e-07
1.73978e-07
1.74075e-07
1.74173e-07
1.74272e-07
1.74372e-07
1.74471e-07
1.74572e-07
1.74673e-07
1.74774e-07
1.74876e-07
1.74979e-07
1.75082e-07
1.75185e-07
1.75288e-07
1.75392e-07
1.75497e-07
1.75602e-07
1.75707e-07
1.75812e-07
1.75918e-07
1.76024e-07
1.7613e-07
1.76236e-07
1.76343e-07
1.7645e-07
1.76557e-07
1.76665e-07
1.76772e-07
1.7688e-07
1.76989e-07
1.77097e-07
1.77205e-07
1.77314e-07
1.77423e-07
1.77532e-07
1.77641e-07
1.77751e-07
1.7786e-07
1.7797e-07
1.7808e-07
1.7819e-07
1.783e-07
1.78411e-07
1.78521e-07
1.78632e-07
1.78743e-07
1.78854e-07
1.78965e-07
1.79076e-07
1.79187e-07
1.79299e-07
1.79411e-07
1.79522e-07
1.79634e-07
1.79745e-07
1.79858e-07
1.7997e-07
1.80082e-07
1.80195e-07
1.80307e-07
1.8042e-07
1.80533e-07
1.80646e-07
1.80759e-07
1.80872e-07
1.80985e-07
1.81099e-07
1.81212e-07
1.81326e-07
1.8144e-07
1.81553e-07
1.81667e-07
1.81781e-07
1.81896e-07
1.8201e-07
1.82124e-07
1.82239e-07
1.82353e-07
1.82468e-07
1.82583e-07
1.82698e-07
1.82813e-07
1.82928e-07
1.83043e-07
1.83158e-07
1.83274e-07
1.83389e-07
1.83505e-07
1.83621e-07
1.83737e-07
1.83853e-07
1.83969e-07
1.84086e-07
1.84202e-07
1.84319e-07
1.84435e-07
1.84552e-07
1.84669e-07
1.84786e-07
1.84903e-07
1.85021e-07
1.85138e-07
1.85256e-07
1.85374e-07
1.85491e-07
1.85609e-07
1.85728e-07
1.85846e-07
1.85964e-07
1.86083e-07
1.86201e-07
1.8632e-07
1.86439e-07
1.86558e-07
1.86677e-07
1.86796e-07
1.86916e-07
1.87035e-07
1.87155e-07
1.87275e-07
1.87395e-07
1.87515e-07
1.87636e-07
1.87756e-07
1.87877e-07
1.87997e-07
1.88118e-07
1.88239e-07
1.8836e-07
1.88482e-07
1.88603e-07
1.88725e-07
1.88847e-07
1.88969e-07
1.89091e-07
1.89213e-07
1.89335e-07
1.89458e-07
1.89581e-07
1.89704e-07
1.89827e-07
1.8995e-07
1.90073e-07
1.90197e-07
1.9032e-07
1.90444e-07
1.90568e-07
1.90692e-07
1.90817e-07
1.90941e-07
1.91066e-07
1.91191e-07
1.91316e-07
1.91441e-07
1.91567e-07
1.91692e-07
1.91817e-07
1.91943e-07
1.92069e-07
1.92196e-07
1.92322e-07
1.92449e-07
1.92575e-07
1.92702e-07
1.92829e-07
1.92956e-07
1.93084e-07
1.93211e-07
1.93339e-07
1.93467e-07
1.93595e-07
1.93723e-07
1.93852e-07
1.93981e-07
1.94109e-07
1.94238e-07
1.94368e-07
1.94497e-07
1.94626e-07
1.94756e-07
1.94886e-07
1.95016e-07
1.95146e-07
1.95277e-07
1.95407e-07
1.95538e-07
1.95669e-07
1.958e-07
1.95932e-07
1.96063e-07
1.96195e-07
1.96327e-07
1.96459e-07
1.96591e-07
1.96723e-07
1.96856e-07
1.96989e-07
1.97122e-07
1.97255e-07
1.97388e-07
1.97522e-07
1.97656e-07
1.9779e-07
1.97924e-07
1.98058e-07
1.98192e-07
1.98327e-07
1.98462e-07
1.98597e-07
1.98732e-07
1.98867e-07
1.99003e-07
1.99139e-07
1.99275e-07
1.99411e-07
1.99547e-07
1.99683e-07
1.9982e-07
1.99957e-07
2.00094e-07
2.00231e-07
2.00369e-07
2.00506e-07
2.00644e-07
2.00782e-07
2.0092e-07
2.01059e-07
2.01197e-07
2.01336e-07
2.01475e-07
2.01614e-07
2.01753e-07
2.01893e-07
2.02033e-07
2.02172e-07
2.02313e-07
2.02453e-07
2.02593e-07
2.02734e-07
2.02875e-07
2.03016e-07
2.03157e-07
2.03299e-07
2.0344e-07
2.03582e-07
2.03724e-07
2.03866e-07
2.04009e-07
2.04152e-07
2.04294e-07
2.04437e-07
2.04581e-07
2.04724e-07
2.04868e-07
2.05012e-07
2.05156e-07
2.053e-07
2.05444e-07
2.05589e-07
2.05734e-07
2.05879e-07
2.06024e-07
2.0617e-07
2.06315e-07
2.06461e-07
2.06607e-07
2.06754e-07
2.069e-07
2.07047e-07
2.07194e-07
2.07341e-07
2.07488e-07
2.07636e-07
2.07784e-07
2.07932e-07
2.0808e-07
2.08228e-07
2.08377e-07
2.08526e-07
2.08675e-07
2.08824e-07
2.08974e-07
2.09123e-07
2.09273e-07
2.09423e-07
2.09574e-07
2.09724e-07
2.09875e-07
2.10026e-07
2.10177e-07
2.10329e-07
2.1048e-07
2.10632e-07
2.10784e-07
2.10937e-07
2.11089e-07
2.11242e-07
2.11395e-07
2.11548e-07
2.11702e-07
2.11855e-07
2.12009e-07
2.12163e-07
2.12318e-07
2.12472e-07
2.12627e-07
2.12782e-07
2.12937e-07
2.13092e-07
2.13248e-07
2.13404e-07
2.1356e-07
2.13717e-07
2.13873e-07
2.1403e-07
2.14187e-07
2.14344e-07
2.14502e-07
2.1466e-07
2.14818e-07
2.14976e-07
2.15134e-07
2.15293e-07
2.15452e-07
2.15611e-07
2.1577e-07
2.1593e-07
2.1609e-07
2.1625e-07
2.1641e-07
2.16571e-07
2.16731e-07
2.16892e-07
2.17054e-07
2.17215e-07
2.17377e-07
2.17539e-07
2.17701e-07
2.17863e-07
2.18026e-07
2.18189e-07
2.18352e-07
2.18516e-07
2.18679e-07
2.18843e-07
2.19007e-07
2.19172e-07
2.19336e-07
2.19501e-07
2.19666e-07
2.19831e-07
2.19997e-07
2.20163e-07
2.20329e-07
2.20495e-07
2.20662e-07
2.20829e-07
2.20996e-07
2.21163e-07
2.21331e-07
2.21498e-07
2.21666e-07
2.21835e-07
2.22003e-07
2.22172e-07
2.22341e-07
2.22511e-07
2.2268e-07
2.2285e-07
2.2302e-07
2.23191e-07
2.23361e-07
2.23532e-07
2.23703e-07
2.23875e-07
2.24046e-07
2.24218e-07
2.24391e-07
2.24563e-07
2.24736e-07
2.24909e-07
2.25082e-07
2.25256e-07
2.2543e-07
2.25604e-07
2.25778e-07
2.25953e-07
2.26128e-07
2.26303e-07
2.26478e-07
2.26654e-07
2.2683e-07
2.27006e-07
2.27183e-07
2.2736e-07
2.27537e-07
2.27715e-07
2.27892e-07
2.2807e-07
2.28248e-07
2.28427e-07
2.28606e-07
2.28785e-07
2.28964e-07
2.29144e-07
2.29324e-07
2.29504e-07
2.29685e-07
2.29864e-07
2.30046e-07
2.30227e-07
2.30409e-07
2.30591e-07
2.30773e-07
2.30956e-07
2.31139e-07
2.31322e-07
2.31506e-07
2.31689e-07
2.31873e-07
2.32058e-07
2.32243e-07
2.32428e-07
2.32613e-07
2.32799e-07
2.32985e-07
2.33171e-07
2.33357e-07
2.33544e-07
2.33731e-07
2.33919e-07
2.34106e-07
2.34294e-07
2.34483e-07
2.34671e-07
2.3486e-07
2.3505e-07
2.35239e-07
2.35429e-07
2.35619e-07
2.3581e-07
2.36001e-07
2.36192e-07
2.36383e-07
2.36575e-07
2.36767e-07
2.36959e-07
2.37152e-07
2.37345e-07
2.37538e-07
2.37731e-07
2.37925e-07
2.3812e-07
2.38314e-07
2.38508e-07
2.38702e-07
2.38898e-07
2.39093e-07
2.39289e-07
2.39486e-07
2.39682e-07
2.39879e-07
2.40077e-07
2.40274e-07
2.40472e-07
2.4067e-07
2.40869e-07
2.41067e-07
2.41267e-07
2.41466e-07
2.41666e-07
2.41866e-07
2.42066e-07
2.42267e-07
2.42468e-07
2.42669e-07
2.42871e-07
2.43073e-07
2.43275e-07
2.43478e-07
2.43681e-07
2.43884e-07
2.44088e-07
2.44292e-07
2.44496e-07
2.44701e-07
2.44906e-07
2.45111e-07
2.45317e-07
2.45523e-07
2.45729e-07
2.45936e-07
2.46143e-07
2.4635e-07
2.46558e-07
2.46766e-07
2.46974e-07
2.47183e-07
2.47392e-07
2.47601e-07
2.47811e-07
2.48021e-07
2.48232e-07
2.48442e-07
2.48654e-07
2.48865e-07
2.49077e-07
2.4929e-07
2.49502e-07
2.49715e-07
2.49929e-07
2.50143e-07
2.50357e-07
2.50572e-07
2.50786e-07
2.51e-07
2.51216e-07
2.51432e-07
2.51649e-07
2.51865e-07
2.52083e-07
2.523e-07
2.52518e-07
2.52735e-07
2.52954e-07
2.53173e-07
2.53392e-07
2.53612e-07
2.53832e-07
2.54053e-07
2.54274e-07
2.54496e-07
2.54718e-07
2.5494e-07
2.55163e-07
2.55386e-07
2.5561e-07
2.55834e-07
2.56058e-07
2.56283e-07
2.56508e-07
2.56734e-07
2.5696e-07
2.57186e-07
2.57413e-07
2.57641e-07
2.57869e-07
2.58097e-07
2.58326e-07
2.58555e-07
2.58784e-07
2.59014e-07
2.59245e-07
2.59476e-07
2.59707e-07
2.59939e-07
2.60172e-07
2.60405e-07
2.60638e-07
2.60872e-07
2.61106e-07
2.61341e-07
2.61576e-07
2.61812e-07
2.62048e-07
2.62285e-07
2.62522e-07
2.6276e-07
2.62999e-07
2.63238e-07
2.63477e-07
2.63718e-07
2.63958e-07
2.642e-07
2.64442e-07
2.64684e-07
2.64928e-07
2.65172e-07
2.65417e-07
2.65662e-07
2.65908e-07
2.66156e-07
2.66403e-07
2.66652e-07
2.66902e-07
2.67153e-07
2.67404e-07
2.67657e-07
2.67911e-07
2.68166e-07
2.68422e-07
2.68679e-07
2.68938e-07
2.69198e-07
2.69459e-07
2.69723e-07
2.69987e-07
2.70254e-07
2.70522e-07
2.70793e-07
2.71065e-07
2.7134e-07
2.71617e-07
2.71897e-07
2.72179e-07
2.72465e-07
2.72753e-07
2.73045e-07
2.7334e-07
2.73638e-07
2.73941e-07
2.74248e-07
2.74559e-07
2.74875e-07
2.75196e-07
2.75523e-07
2.75855e-07
2.76193e-07
2.76539e-07
2.76891e-07
2.7725e-07
2.77618e-07
2.77994e-07
2.78379e-07
2.78773e-07
2.79178e-07
2.79594e-07
2.80022e-07
2.80462e-07
2.80915e-07
2.81382e-07
2.81865e-07
2.82363e-07
2.82878e-07
2.83411e-07
2.83964e-07
2.84536e-07
2.85131e-07
2.85748e-07
2.8639e-07
2.87057e-07
2.87753e-07
2.88477e-07
2.89232e-07
2.9002e-07
2.90842e-07
2.91702e-07
2.926e-07
2.9354e-07
2.94523e-07
2.95552e-07
2.96631e-07
2.9776e-07
2.98945e-07
3.00187e-07
3.0149e-07
3.02857e-07
3.04291e-07
3.05797e-07
3.07379e-07
3.0904e-07
3.10784e-07
3.12617e-07
3.14542e-07
3.16564e-07
3.18689e-07
3.20922e-07
3.23267e-07
3.25732e-07
3.28321e-07
3.31041e-07
3.33898e-07
3.36899e-07
3.40051e-07
3.4336e-07
3.46834e-07
3.5048e-07
3.54307e-07
3.58322e-07
3.62533e-07
3.6695e-07
3.7158e-07
3.76433e-07
3.81519e-07
3.86845e-07
3.92423e-07
3.98261e-07
4.0437e-07
4.10759e-07
4.1744e-07
4.24422e-07
4.31716e-07
4.39332e-07
4.47282e-07
4.55574e-07
4.6422e-07
4.7323e-07
4.82614e-07
4.92382e-07
5.02544e-07
5.13109e-07
5.24085e-07
5.35482e-07
5.47306e-07
5.59564e-07
5.72263e-07
5.85409e-07
5.99004e-07
6.13052e-07
6.27554e-07
6.42511e-07
6.57922e-07
6.73781e-07
6.90086e-07
7.06827e-07
7.23994e-07
7.41577e-07
7.59559e-07
7.77922e-07
7.96645e-07
8.15704e-07
8.35071e-07
8.54715e-07
8.74599e-07
8.94685e-07
9.14928e-07
9.35283e-07
9.55695e-07
9.7611e-07
9.96466e-07
1.0167e-06
1.03674e-06
1.05651e-06
1.07595e-06
1.09495e-06
1.11345e-06
1.13135e-06
1.14856e-06
1.16499e-06
1.18055e-06
1.19512e-06
1.20863e-06
1.22097e-06
1.23203e-06
1.24173e-06
1.24996e-06
1.25663e-06
1.26165e-06
1.26492e-06
1.26635e-06
1.26588e-06
1.26343e-06
1.25891e-06
1.25226e-06
1.24342e-06
1.23234e-06
1.21895e-06
1.20323e-06
1.18513e-06
1.16462e-06
1.14169e-06
1.11632e-06
1.0885e-06
1.05825e-06
1.02558e-06
9.90511e-07
9.53082e-07
9.13339e-07
8.71346e-07
8.27178e-07
7.80926e-07
7.32699e-07
6.82627e-07
6.30858e-07
5.77567e-07
5.22957e-07
4.6726e-07
4.10743e-07
3.53711e-07
2.96516e-07
2.39554e-07
1.83276e-07
1.28191e-07
7.48664e-08
2.39293e-08
)
;

boundaryField
{
    fixedWall
    {
        type            zeroGradient;
    }
    outlet
    {
        type            inletOutlet;
        inletValue      uniform 0;
        value           uniform 0;
    }
    defaultFaces
    {
        type            empty;
    }
}


// ************************************************************************* //
