/*--------------------------------*- C++ -*----------------------------------*\
| =========                 |                                                 |
| \\      /  F ield         | OpenFOAM: The Open Source CFD Toolbox           |
|  \\    /   O peration     | Version:  2406                                  |
|   \\  /    A nd           | Website:  www.openfoam.com                      |
|    \\/     M anipulation  |                                                 |
\*---------------------------------------------------------------------------*/
FoamFile
{
    version     2.0;
    format      ascii;
    arch        "LSB;label=32;scalar=64";
    class       volScalarField;
    location    "9.7";
    object      O2;
}
// * * * * * * * * * * * * * * * * * * * * * * * * * * * * * * * * * * * * * //

dimensions      [0 0 0 0 0 0 0];

internalField   nonuniform List<scalar> 
1000
(
1.17053e-06
1.16851e-06
1.16484e-06
1.1598e-06
1.15359e-06
1.14637e-06
1.13826e-06
1.12936e-06
1.11976e-06
1.10953e-06
1.09875e-06
1.08745e-06
1.07571e-06
1.06354e-06
1.05101e-06
1.03814e-06
1.02497e-06
1.01153e-06
9.97848e-07
9.83948e-07
9.69857e-07
9.55599e-07
9.41196e-07
9.26669e-07
9.12039e-07
8.97325e-07
8.82546e-07
8.6772e-07
8.52866e-07
8.38e-07
8.23138e-07
8.08298e-07
7.93495e-07
7.78745e-07
7.64063e-07
7.49463e-07
7.3496e-07
7.20567e-07
7.06298e-07
6.92167e-07
6.78184e-07
6.64362e-07
6.50713e-07
6.37246e-07
6.23972e-07
6.109e-07
5.98039e-07
5.85397e-07
5.72981e-07
5.60797e-07
5.48852e-07
5.37151e-07
5.25699e-07
5.14498e-07
5.03553e-07
4.92866e-07
4.82439e-07
4.72273e-07
4.62369e-07
4.52727e-07
4.43347e-07
4.34227e-07
4.25368e-07
4.16765e-07
4.08419e-07
4.00325e-07
3.92481e-07
3.84884e-07
3.7753e-07
3.70416e-07
3.63537e-07
3.5689e-07
3.50469e-07
3.4427e-07
3.38289e-07
3.32521e-07
3.2696e-07
3.21602e-07
3.16442e-07
3.11475e-07
3.06695e-07
3.02098e-07
2.97679e-07
2.93431e-07
2.89352e-07
2.85434e-07
2.81675e-07
2.78067e-07
2.74608e-07
2.71292e-07
2.68114e-07
2.65069e-07
2.62155e-07
2.59365e-07
2.56696e-07
2.54143e-07
2.51702e-07
2.4937e-07
2.47143e-07
2.45015e-07
2.42985e-07
2.41048e-07
2.39201e-07
2.3744e-07
2.35763e-07
2.34165e-07
2.32644e-07
2.31196e-07
2.2982e-07
2.28512e-07
2.27269e-07
2.26088e-07
2.24968e-07
2.23906e-07
2.22899e-07
2.21945e-07
2.21041e-07
2.20187e-07
2.19379e-07
2.18616e-07
2.17896e-07
2.17216e-07
2.16576e-07
2.15974e-07
2.15407e-07
2.14874e-07
2.14375e-07
2.13907e-07
2.13469e-07
2.13059e-07
2.12677e-07
2.12321e-07
2.1199e-07
2.11683e-07
2.11399e-07
2.11136e-07
2.10894e-07
2.10672e-07
2.10469e-07
2.10284e-07
2.10116e-07
2.09964e-07
2.09828e-07
2.09707e-07
2.096e-07
2.09506e-07
2.09426e-07
2.09357e-07
2.09301e-07
2.09255e-07
2.0922e-07
2.09195e-07
2.0918e-07
2.09174e-07
2.09176e-07
2.09187e-07
2.09205e-07
2.09231e-07
2.09264e-07
2.09304e-07
2.0935e-07
2.09402e-07
2.0946e-07
2.09524e-07
2.09593e-07
2.09666e-07
2.09745e-07
2.09828e-07
2.09915e-07
2.10007e-07
2.10102e-07
2.102e-07
2.10303e-07
2.10408e-07
2.10517e-07
2.10629e-07
2.10743e-07
2.1086e-07
2.1098e-07
2.11102e-07
2.11227e-07
2.11353e-07
2.11482e-07
2.11613e-07
2.11745e-07
2.11879e-07
2.12015e-07
2.12153e-07
2.12292e-07
2.12433e-07
2.12575e-07
2.12718e-07
2.12862e-07
2.13008e-07
2.13155e-07
2.13303e-07
2.13452e-07
2.13602e-07
2.13753e-07
2.13904e-07
2.14057e-07
2.1421e-07
2.14365e-07
2.1452e-07
2.14675e-07
2.14832e-07
2.14989e-07
2.15146e-07
2.15305e-07
2.15463e-07
2.15623e-07
2.15783e-07
2.15943e-07
2.16104e-07
2.16265e-07
2.16427e-07
2.16589e-07
2.16752e-07
2.16915e-07
2.17079e-07
2.17243e-07
2.17407e-07
2.17572e-07
2.17737e-07
2.17902e-07
2.18068e-07
2.18234e-07
2.184e-07
2.18567e-07
2.18734e-07
2.18901e-07
2.19069e-07
2.19236e-07
2.19404e-07
2.19573e-07
2.19741e-07
2.19911e-07
2.2008e-07
2.20249e-07
2.20419e-07
2.20589e-07
2.2076e-07
2.2093e-07
2.21101e-07
2.21272e-07
2.21444e-07
2.21615e-07
2.21787e-07
2.21959e-07
2.22131e-07
2.22304e-07
2.22476e-07
2.22649e-07
2.22822e-07
2.22996e-07
2.23169e-07
2.23343e-07
2.23517e-07
2.23691e-07
2.23866e-07
2.24041e-07
2.24216e-07
2.24391e-07
2.24566e-07
2.24742e-07
2.24917e-07
2.25093e-07
2.2527e-07
2.25446e-07
2.25623e-07
2.258e-07
2.25977e-07
2.26154e-07
2.26332e-07
2.2651e-07
2.26688e-07
2.26866e-07
2.27044e-07
2.27223e-07
2.27402e-07
2.27581e-07
2.2776e-07
2.2794e-07
2.2812e-07
2.283e-07
2.2848e-07
2.28661e-07
2.28841e-07
2.29022e-07
2.29203e-07
2.29385e-07
2.29567e-07
2.29748e-07
2.29931e-07
2.30113e-07
2.30295e-07
2.30478e-07
2.30661e-07
2.30845e-07
2.31028e-07
2.3121e-07
2.31394e-07
2.31579e-07
2.31763e-07
2.31948e-07
2.32133e-07
2.32318e-07
2.32504e-07
2.3269e-07
2.32876e-07
2.33062e-07
2.33249e-07
2.33435e-07
2.33622e-07
2.3381e-07
2.33997e-07
2.34185e-07
2.34373e-07
2.34562e-07
2.3475e-07
2.34939e-07
2.35128e-07
2.35318e-07
2.35508e-07
2.35698e-07
2.35888e-07
2.36078e-07
2.36269e-07
2.3646e-07
2.36652e-07
2.36844e-07
2.37036e-07
2.37228e-07
2.3742e-07
2.37613e-07
2.37806e-07
2.38e-07
2.38194e-07
2.38388e-07
2.38582e-07
2.38777e-07
2.38972e-07
2.39167e-07
2.39362e-07
2.39558e-07
2.39755e-07
2.39951e-07
2.40148e-07
2.40345e-07
2.40543e-07
2.4074e-07
2.40938e-07
2.41137e-07
2.41336e-07
2.41535e-07
2.41734e-07
2.41934e-07
2.42134e-07
2.42335e-07
2.42535e-07
2.42736e-07
2.42938e-07
2.4314e-07
2.43342e-07
2.43544e-07
2.43747e-07
2.4395e-07
2.44154e-07
2.44358e-07
2.44562e-07
2.44767e-07
2.44972e-07
2.45177e-07
2.45383e-07
2.45589e-07
2.45795e-07
2.46002e-07
2.46209e-07
2.46416e-07
2.46624e-07
2.46832e-07
2.47041e-07
2.4725e-07
2.47459e-07
2.47669e-07
2.47879e-07
2.4809e-07
2.483e-07
2.48512e-07
2.48723e-07
2.48935e-07
2.49147e-07
2.4936e-07
2.49573e-07
2.49787e-07
2.5e-07
2.50215e-07
2.50429e-07
2.50644e-07
2.5086e-07
2.51075e-07
2.51291e-07
2.51508e-07
2.51725e-07
2.51942e-07
2.5216e-07
2.52378e-07
2.52596e-07
2.52815e-07
2.53034e-07
2.53254e-07
2.53474e-07
2.53694e-07
2.53915e-07
2.54136e-07
2.54357e-07
2.54579e-07
2.54802e-07
2.55024e-07
2.55247e-07
2.55471e-07
2.55695e-07
2.55919e-07
2.56144e-07
2.56369e-07
2.56594e-07
2.5682e-07
2.57046e-07
2.57273e-07
2.575e-07
2.57727e-07
2.57955e-07
2.58183e-07
2.58412e-07
2.58641e-07
2.5887e-07
2.591e-07
2.5933e-07
2.59561e-07
2.59792e-07
2.60023e-07
2.60255e-07
2.60487e-07
2.6072e-07
2.60953e-07
2.61186e-07
2.6142e-07
2.61654e-07
2.61889e-07
2.62124e-07
2.62359e-07
2.62595e-07
2.62832e-07
2.63068e-07
2.63306e-07
2.63543e-07
2.63781e-07
2.6402e-07
2.64259e-07
2.64498e-07
2.64738e-07
2.64978e-07
2.65218e-07
2.65459e-07
2.65701e-07
2.65943e-07
2.66185e-07
2.66428e-07
2.66671e-07
2.66915e-07
2.67159e-07
2.67404e-07
2.67649e-07
2.67894e-07
2.6814e-07
2.68386e-07
2.68633e-07
2.6888e-07
2.69128e-07
2.69376e-07
2.69625e-07
2.69874e-07
2.70124e-07
2.70374e-07
2.70624e-07
2.70875e-07
2.71126e-07
2.71378e-07
2.71631e-07
2.71884e-07
2.72137e-07
2.72391e-07
2.72645e-07
2.729e-07
2.73155e-07
2.73411e-07
2.73667e-07
2.73924e-07
2.74181e-07
2.74438e-07
2.74697e-07
2.74955e-07
2.75214e-07
2.75474e-07
2.75734e-07
2.75995e-07
2.76256e-07
2.76517e-07
2.7678e-07
2.77042e-07
2.77305e-07
2.77569e-07
2.77833e-07
2.78098e-07
2.78363e-07
2.78629e-07
2.78895e-07
2.79162e-07
2.79429e-07
2.79696e-07
2.79965e-07
2.80234e-07
2.80502e-07
2.80771e-07
2.81042e-07
2.81313e-07
2.81585e-07
2.81857e-07
2.8213e-07
2.82403e-07
2.82677e-07
2.82949e-07
2.83224e-07
2.83499e-07
2.83775e-07
2.84051e-07
2.84328e-07
2.84605e-07
2.84883e-07
2.85161e-07
2.8544e-07
2.85719e-07
2.85999e-07
2.8628e-07
2.86561e-07
2.86842e-07
2.87124e-07
2.87407e-07
2.8769e-07
2.87974e-07
2.88258e-07
2.88543e-07
2.88829e-07
2.89114e-07
2.89401e-07
2.89688e-07
2.89976e-07
2.90264e-07
2.90553e-07
2.90842e-07
2.91132e-07
2.91422e-07
2.91714e-07
2.92005e-07
2.92297e-07
2.9259e-07
2.92883e-07
2.93177e-07
2.93472e-07
2.93767e-07
2.94063e-07
2.94359e-07
2.94656e-07
2.94953e-07
2.95251e-07
2.9555e-07
2.95849e-07
2.96149e-07
2.96449e-07
2.9675e-07
2.97051e-07
2.97354e-07
2.97656e-07
2.9796e-07
2.98264e-07
2.98568e-07
2.98874e-07
2.9918e-07
2.99486e-07
2.99793e-07
3.00101e-07
3.00409e-07
3.00718e-07
3.01028e-07
3.01338e-07
3.01649e-07
3.01961e-07
3.02273e-07
3.02586e-07
3.02899e-07
3.03213e-07
3.03528e-07
3.03843e-07
3.0416e-07
3.04476e-07
3.04794e-07
3.05112e-07
3.05431e-07
3.0575e-07
3.0607e-07
3.06391e-07
3.06713e-07
3.07035e-07
3.07358e-07
3.07681e-07
3.08006e-07
3.08331e-07
3.08656e-07
3.08983e-07
3.0931e-07
3.09638e-07
3.09966e-07
3.10296e-07
3.10626e-07
3.10955e-07
3.11284e-07
3.11616e-07
3.11949e-07
3.12283e-07
3.12617e-07
3.12952e-07
3.13288e-07
3.13625e-07
3.13962e-07
3.143e-07
3.14639e-07
3.14978e-07
3.15318e-07
3.15659e-07
3.16001e-07
3.16344e-07
3.16687e-07
3.17031e-07
3.17376e-07
3.17721e-07
3.18068e-07
3.18415e-07
3.18763e-07
3.19111e-07
3.19461e-07
3.19811e-07
3.20162e-07
3.20514e-07
3.20866e-07
3.2122e-07
3.21574e-07
3.21929e-07
3.22284e-07
3.22641e-07
3.22998e-07
3.23356e-07
3.23715e-07
3.24075e-07
3.24435e-07
3.24797e-07
3.25159e-07
3.25522e-07
3.25885e-07
3.2625e-07
3.26615e-07
3.26981e-07
3.27348e-07
3.27716e-07
3.28084e-07
3.28454e-07
3.28824e-07
3.29195e-07
3.29567e-07
3.2994e-07
3.30313e-07
3.30687e-07
3.31062e-07
3.31438e-07
3.31815e-07
3.32191e-07
3.32568e-07
3.32947e-07
3.33327e-07
3.33708e-07
3.3409e-07
3.34472e-07
3.34855e-07
3.3524e-07
3.35625e-07
3.36011e-07
3.36397e-07
3.36785e-07
3.37173e-07
3.37562e-07
3.37953e-07
3.38343e-07
3.38735e-07
3.39128e-07
3.39522e-07
3.39916e-07
3.40311e-07
3.40707e-07
3.41105e-07
3.41503e-07
3.41901e-07
3.42301e-07
3.42702e-07
3.43103e-07
3.43506e-07
3.43909e-07
3.44313e-07
3.44719e-07
3.45125e-07
3.45532e-07
3.4594e-07
3.46349e-07
3.46759e-07
3.4717e-07
3.47581e-07
3.47994e-07
3.48408e-07
3.48823e-07
3.49238e-07
3.49655e-07
3.50073e-07
3.50492e-07
3.50911e-07
3.51332e-07
3.51754e-07
3.52177e-07
3.52601e-07
3.53025e-07
3.53451e-07
3.53878e-07
3.54307e-07
3.54736e-07
3.55166e-07
3.55597e-07
3.5603e-07
3.56463e-07
3.56898e-07
3.57334e-07
3.57771e-07
3.58209e-07
3.58648e-07
3.59088e-07
3.5953e-07
3.5997e-07
3.60411e-07
3.60856e-07
3.61302e-07
3.61749e-07
3.62198e-07
3.62647e-07
3.63098e-07
3.6355e-07
3.64003e-07
3.64457e-07
3.64913e-07
3.65369e-07
3.65827e-07
3.66286e-07
3.66747e-07
3.67208e-07
3.67671e-07
3.68135e-07
3.686e-07
3.69067e-07
3.69534e-07
3.70003e-07
3.70473e-07
3.70945e-07
3.71418e-07
3.71892e-07
3.72367e-07
3.72843e-07
3.73321e-07
3.738e-07
3.7428e-07
3.74762e-07
3.75245e-07
3.75726e-07
3.76211e-07
3.76697e-07
3.77185e-07
3.77673e-07
3.78163e-07
3.78655e-07
3.79147e-07
3.79641e-07
3.80136e-07
3.80632e-07
3.8113e-07
3.81629e-07
3.82129e-07
3.82631e-07
3.83133e-07
3.83637e-07
3.84143e-07
3.84649e-07
3.85157e-07
3.85666e-07
3.86177e-07
3.86689e-07
3.87202e-07
3.87716e-07
3.88232e-07
3.88749e-07
3.89268e-07
3.89788e-07
3.90309e-07
3.90832e-07
3.91356e-07
3.91881e-07
3.92408e-07
3.92937e-07
3.93467e-07
3.93998e-07
3.94531e-07
3.95066e-07
3.95602e-07
3.9614e-07
3.96679e-07
3.97221e-07
3.97763e-07
3.98308e-07
3.98855e-07
3.99403e-07
3.99954e-07
4.00506e-07
4.01061e-07
4.01617e-07
4.02176e-07
4.02738e-07
4.03302e-07
4.03868e-07
4.04437e-07
4.05009e-07
4.05584e-07
4.06162e-07
4.06743e-07
4.07328e-07
4.07916e-07
4.08509e-07
4.09105e-07
4.09707e-07
4.10312e-07
4.10923e-07
4.1154e-07
4.12162e-07
4.1279e-07
4.13425e-07
4.14067e-07
4.14717e-07
4.15376e-07
4.16043e-07
4.1672e-07
4.17407e-07
4.18105e-07
4.18815e-07
4.19539e-07
4.20276e-07
4.21029e-07
4.21798e-07
4.22584e-07
4.2339e-07
4.24216e-07
4.25064e-07
4.25937e-07
4.26835e-07
4.27762e-07
4.28718e-07
4.29707e-07
4.30731e-07
4.31793e-07
4.32896e-07
4.34043e-07
4.35237e-07
4.36482e-07
4.37782e-07
4.39141e-07
4.40563e-07
4.42054e-07
4.43618e-07
4.45261e-07
4.46989e-07
4.48807e-07
4.50722e-07
4.52742e-07
4.54874e-07
4.57125e-07
4.59504e-07
4.6202e-07
4.64682e-07
4.67501e-07
4.70486e-07
4.73649e-07
4.77002e-07
4.80557e-07
4.84327e-07
4.88325e-07
4.92568e-07
4.97068e-07
5.01844e-07
5.0691e-07
5.12285e-07
5.17987e-07
5.24036e-07
5.3045e-07
5.3725e-07
5.44459e-07
5.52098e-07
5.6019e-07
5.6876e-07
5.77831e-07
5.87429e-07
5.97579e-07
6.08309e-07
6.19644e-07
6.31613e-07
6.44242e-07
6.57561e-07
6.71595e-07
6.86374e-07
7.01925e-07
7.18274e-07
7.35448e-07
7.53471e-07
7.72368e-07
7.92161e-07
8.12869e-07
8.34511e-07
8.57102e-07
8.80651e-07
9.05168e-07
9.30655e-07
9.5711e-07
9.84525e-07
1.01288e-06
1.04217e-06
1.07235e-06
1.10338e-06
1.13522e-06
1.16781e-06
1.20107e-06
1.23494e-06
1.26931e-06
1.30407e-06
1.33911e-06
1.37429e-06
1.40946e-06
1.44445e-06
1.47908e-06
1.51316e-06
1.54649e-06
1.57884e-06
1.60997e-06
1.63965e-06
1.66762e-06
1.69362e-06
1.71738e-06
1.73863e-06
1.7571e-06
1.77252e-06
1.78462e-06
1.79314e-06
1.79779e-06
1.7984e-06
1.79472e-06
1.78653e-06
1.77364e-06
1.75587e-06
1.73306e-06
1.70507e-06
1.6718e-06
1.63316e-06
1.58908e-06
1.53955e-06
1.48454e-06
1.4241e-06
1.35828e-06
1.2872e-06
1.21099e-06
1.12985e-06
1.04403e-06
9.53846e-07
8.59677e-07
7.61996e-07
6.61373e-07
5.58498e-07
4.542e-07
3.49479e-07
2.45533e-07
1.43793e-07
4.59565e-08
)
;

boundaryField
{
    fixedWall
    {
        type            zeroGradient;
    }
    outlet
    {
        type            inletOutlet;
        inletValue      uniform 0;
        value           uniform 0;
    }
    defaultFaces
    {
        type            empty;
    }
}


// ************************************************************************* //
