/*--------------------------------*- C++ -*----------------------------------*\
| =========                 |                                                 |
| \\      /  F ield         | OpenFOAM: The Open Source CFD Toolbox           |
|  \\    /   O peration     | Version:  2406                                  |
|   \\  /    A nd           | Website:  www.openfoam.com                      |
|    \\/     M anipulation  |                                                 |
\*---------------------------------------------------------------------------*/
FoamFile
{
    version     2.0;
    format      ascii;
    arch        "LSB;label=32;scalar=64";
    class       volScalarField;
    location    "9.7";
    object      T;
}
// * * * * * * * * * * * * * * * * * * * * * * * * * * * * * * * * * * * * * //

dimensions      [0 0 0 1 0 0 0];

internalField   nonuniform List<scalar> 
1000
(
306.075
330.121
352.342
373.037
392.426
410.681
427.938
444.307
459.878
474.727
488.918
502.506
515.537
528.053
540.09
551.68
562.851
573.628
584.034
594.089
603.812
613.219
622.326
631.147
639.695
647.981
656.016
663.812
671.376
678.719
685.848
692.771
699.495
706.028
712.375
718.542
724.537
730.363
736.026
741.531
746.883
752.086
757.145
762.064
766.846
771.496
776.016
780.411
784.684
788.839
792.877
796.803
800.619
804.328
807.933
811.437
814.842
818.15
821.365
824.488
827.521
830.468
833.33
836.109
838.807
841.427
843.97
846.439
848.835
851.159
853.415
855.603
857.725
859.783
861.779
863.714
865.59
867.408
869.169
870.876
872.529
874.131
875.682
877.183
878.637
880.044
881.405
882.722
883.996
885.229
886.42
887.572
888.686
889.762
890.802
891.807
892.777
893.714
894.619
895.492
896.334
897.147
897.932
898.688
899.417
900.12
900.798
901.451
902.08
902.686
903.27
903.831
904.372
904.892
905.393
905.875
906.338
906.783
907.211
907.622
908.017
908.397
908.761
909.111
909.447
909.77
910.079
910.375
910.66
910.933
911.194
911.444
911.684
911.914
912.134
912.345
912.546
912.739
912.924
913.1
913.269
913.43
913.584
913.731
913.871
914.006
914.134
914.256
914.373
914.484
914.59
914.691
914.787
914.878
914.966
915.049
915.128
915.204
915.275
915.344
915.408
915.47
915.529
915.584
915.637
915.687
915.735
915.78
915.823
915.864
915.902
915.939
915.973
916.006
916.037
916.066
916.094
916.12
916.145
916.169
916.191
916.211
916.231
916.25
916.267
916.284
916.299
916.314
916.328
916.34
916.353
916.364
916.375
916.385
916.394
916.403
916.411
916.419
916.426
916.433
916.439
916.445
916.451
916.456
916.46
916.465
916.469
916.473
916.476
916.479
916.482
916.485
916.488
916.49
916.492
916.494
916.496
916.497
916.499
916.5
916.501
916.502
916.503
916.504
916.504
916.505
916.506
916.506
916.506
916.507
916.507
916.507
916.507
916.507
916.507
916.507
916.507
916.507
916.507
916.506
916.506
916.506
916.505
916.505
916.505
916.504
916.504
916.504
916.503
916.503
916.503
916.502
916.502
916.501
916.501
916.5
916.5
916.5
916.499
916.499
916.498
916.498
916.498
916.497
916.497
916.496
916.496
916.496
916.495
916.495
916.494
916.494
916.494
916.493
916.493
916.493
916.493
916.492
916.492
916.492
916.492
916.491
916.491
916.491
916.491
916.491
916.49
916.49
916.49
916.49
916.49
916.49
916.49
916.49
916.489
916.489
916.489
916.489
916.489
916.489
916.489
916.489
916.489
916.489
916.489
916.489
916.489
916.49
916.49
916.49
916.49
916.49
916.49
916.49
916.49
916.49
916.491
916.491
916.491
916.491
916.491
916.491
916.492
916.492
916.492
916.492
916.493
916.493
916.493
916.493
916.494
916.494
916.494
916.494
916.495
916.495
916.495
916.495
916.496
916.496
916.496
916.497
916.497
916.497
916.497
916.498
916.498
916.498
916.499
916.499
916.499
916.499
916.5
916.5
916.5
916.501
916.501
916.501
916.501
916.502
916.502
916.502
916.503
916.503
916.503
916.503
916.504
916.504
916.504
916.504
916.505
916.505
916.505
916.505
916.506
916.506
916.506
916.506
916.507
916.507
916.507
916.507
916.507
916.508
916.508
916.508
916.508
916.508
916.508
916.509
916.509
916.509
916.509
916.509
916.509
916.51
916.51
916.51
916.51
916.51
916.51
916.51
916.51
916.51
916.511
916.511
916.511
916.511
916.511
916.511
916.511
916.511
916.511
916.511
916.511
916.512
916.512
916.512
916.512
916.512
916.512
916.512
916.512
916.512
916.512
916.512
916.512
916.512
916.512
916.512
916.512
916.512
916.512
916.512
916.513
916.513
916.513
916.513
916.513
916.513
916.513
916.513
916.513
916.513
916.513
916.513
916.513
916.513
916.513
916.513
916.513
916.513
916.513
916.513
916.513
916.513
916.513
916.513
916.513
916.513
916.514
916.514
916.514
916.514
916.514
916.514
916.514
916.514
916.514
916.514
916.514
916.514
916.514
916.514
916.514
916.514
916.514
916.514
916.514
916.514
916.514
916.514
916.514
916.514
916.514
916.514
916.515
916.515
916.515
916.515
916.515
916.515
916.515
916.515
916.515
916.515
916.515
916.515
916.515
916.515
916.515
916.515
916.515
916.515
916.515
916.515
916.515
916.515
916.515
916.515
916.515
916.515
916.515
916.515
916.515
916.515
916.515
916.515
916.515
916.515
916.515
916.515
916.515
916.515
916.515
916.515
916.515
916.515
916.515
916.515
916.515
916.515
916.515
916.515
916.515
916.515
916.515
916.515
916.515
916.515
916.515
916.515
916.515
916.515
916.515
916.515
916.515
916.515
916.515
916.515
916.515
916.515
916.515
916.515
916.515
916.515
916.515
916.515
916.515
916.515
916.515
916.516
916.516
916.516
916.516
916.516
916.516
916.516
916.516
916.516
916.516
916.516
916.516
916.516
916.516
916.516
916.516
916.516
916.516
916.516
916.516
916.517
916.517
916.517
916.517
916.517
916.517
916.517
916.517
916.517
916.517
916.517
916.517
916.517
916.517
916.517
916.518
916.518
916.518
916.518
916.518
916.518
916.518
916.518
916.518
916.518
916.518
916.518
916.518
916.518
916.518
916.518
916.518
916.518
916.518
916.518
916.518
916.518
916.518
916.519
916.519
916.519
916.519
916.519
916.519
916.519
916.519
916.519
916.519
916.519
916.518
916.518
916.518
916.518
916.518
916.518
916.518
916.518
916.518
916.518
916.518
916.518
916.518
916.518
916.518
916.518
916.518
916.518
916.518
916.518
916.518
916.518
916.518
916.517
916.517
916.517
916.517
916.517
916.517
916.517
916.517
916.517
916.517
916.517
916.517
916.517
916.517
916.517
916.516
916.516
916.516
916.516
916.516
916.516
916.516
916.516
916.516
916.516
916.516
916.516
916.516
916.516
916.516
916.516
916.516
916.516
916.516
916.516
916.516
916.516
916.516
916.516
916.516
916.516
916.516
916.516
916.516
916.516
916.516
916.516
916.517
916.517
916.517
916.517
916.517
916.517
916.517
916.517
916.517
916.517
916.518
916.518
916.518
916.518
916.518
916.518
916.518
916.519
916.519
916.519
916.519
916.519
916.519
916.519
916.52
916.52
916.52
916.52
916.52
916.52
916.52
916.521
916.521
916.521
916.521
916.521
916.521
916.521
916.521
916.522
916.522
916.522
916.522
916.522
916.522
916.522
916.522
916.522
916.522
916.522
916.522
916.522
916.522
916.522
916.522
916.522
916.522
916.522
916.522
916.522
916.522
916.522
916.522
916.522
916.522
916.522
916.521
916.521
916.521
916.521
916.521
916.521
916.521
916.52
916.52
916.52
916.52
916.52
916.519
916.519
916.519
916.519
916.518
916.518
916.518
916.518
916.517
916.517
916.517
916.517
916.516
916.516
916.516
916.516
916.515
916.515
916.515
916.514
916.514
916.514
916.514
916.513
916.513
916.513
916.512
916.512
916.512
916.511
916.511
916.51
916.51
916.51
916.509
916.509
916.508
916.508
916.507
916.506
916.506
916.505
916.504
916.504
916.503
916.502
916.501
916.5
916.498
916.497
916.495
916.494
916.492
916.49
916.488
916.486
916.483
916.48
916.477
916.474
916.47
916.466
916.462
916.457
916.452
916.446
916.44
916.433
916.425
916.417
916.408
916.398
916.387
916.375
916.363
916.349
916.333
916.317
916.299
916.279
916.258
916.235
916.21
916.183
916.154
916.122
916.087
916.05
916.01
915.966
915.919
915.869
915.814
915.755
915.691
915.623
915.55
915.47
915.386
915.294
915.196
915.091
914.979
914.858
914.729
914.591
914.444
914.286
914.118
913.938
913.747
913.543
913.325
913.094
912.848
912.586
912.309
912.014
911.701
911.369
911.018
910.646
910.252
909.835
909.395
908.93
908.439
907.922
907.376
906.8
906.195
905.557
904.887
904.182
903.442
902.665
901.849
900.993
900.097
899.157
898.174
897.144
896.068
894.942
893.766
892.537
891.255
889.917
888.521
887.066
885.55
883.971
882.326
880.614
878.833
876.98
875.054
873.052
870.971
868.809
866.564
864.232
861.812
859.299
856.692
853.986
851.179
848.267
845.246
842.112
838.862
835.491
831.995
828.368
824.606
820.703
816.654
812.452
808.092
803.566
798.867
793.988
788.92
783.655
778.184
772.497
766.583
760.432
754.032
747.37
740.434
733.21
725.682
717.875
709.788
701.26
692.362
683.077
673.384
663.262
652.692
641.651
630.116
618.067
605.48
592.335
578.611
564.289
549.353
533.79
517.589
500.748
483.269
465.163
446.452
427.167
407.356
387.082
366.427
345.496
324.421
303.367
)
;

boundaryField
{
    fixedWall
    {
        type            fixedValue;
        value           uniform 293;
    }
    outlet
    {
        type            inletOutlet;
        inletValue      uniform 293;
        value           uniform 293;
    }
    defaultFaces
    {
        type            empty;
    }
}


// ************************************************************************* //
