/*--------------------------------*- C++ -*----------------------------------*\
| =========                 |                                                 |
| \\      /  F ield         | OpenFOAM: The Open Source CFD Toolbox           |
|  \\    /   O peration     | Version:  2406                                  |
|   \\  /    A nd           | Website:  www.openfoam.com                      |
|    \\/     M anipulation  |                                                 |
\*---------------------------------------------------------------------------*/
FoamFile
{
    version     2.0;
    format      ascii;
    arch        "LSB;label=32;scalar=64";
    class       volVectorField;
    location    "9.7";
    object      U;
}
// * * * * * * * * * * * * * * * * * * * * * * * * * * * * * * * * * * * * * //

dimensions      [0 1 -1 0 0 0 0];

internalField   nonuniform List<vector> 
1000
(
(-1.04582e-06 0 0)
(-4.92946e-06 0 0)
(-1.2551e-05 0 0)
(-2.30143e-05 0 0)
(-3.5646e-05 0 0)
(-5.00411e-05 0 0)
(-6.59206e-05 0 0)
(-8.30566e-05 0 0)
(-0.00010126 0 0)
(-0.000120372 0 0)
(-0.00014026 0 0)
(-0.000160812 0 0)
(-0.000181932 0 0)
(-0.000203535 0 0)
(-0.000225551 0 0)
(-0.000247914 0 0)
(-0.000270571 0 0)
(-0.000293468 0 0)
(-0.000316564 0 0)
(-0.000339816 0 0)
(-0.000363189 0 0)
(-0.000386652 0 0)
(-0.000410173 0 0)
(-0.000433726 0 0)
(-0.000457286 0 0)
(-0.000480829 0 0)
(-0.000504336 0 0)
(-0.000527786 0 0)
(-0.000551162 0 0)
(-0.000574448 0 0)
(-0.000597627 0 0)
(-0.000620686 0 0)
(-0.000643612 0 0)
(-0.000666392 0 0)
(-0.000689016 0 0)
(-0.000711471 0 0)
(-0.000733749 0 0)
(-0.00075584 0 0)
(-0.000777736 0 0)
(-0.000799428 0 0)
(-0.000820911 0 0)
(-0.000842175 0 0)
(-0.000863216 0 0)
(-0.000884027 0 0)
(-0.000904603 0 0)
(-0.000924939 0 0)
(-0.000945031 0 0)
(-0.000964873 0 0)
(-0.000984464 0 0)
(-0.0010038 0 0)
(-0.00102287 0 0)
(-0.00104169 0 0)
(-0.00106024 0 0)
(-0.00107852 0 0)
(-0.00109653 0 0)
(-0.00111427 0 0)
(-0.00113174 0 0)
(-0.00114894 0 0)
(-0.00116587 0 0)
(-0.00118252 0 0)
(-0.00119889 0 0)
(-0.00121499 0 0)
(-0.00123082 0 0)
(-0.00124637 0 0)
(-0.00126164 0 0)
(-0.00127664 0 0)
(-0.00129137 0 0)
(-0.00130583 0 0)
(-0.00132001 0 0)
(-0.00133392 0 0)
(-0.00134757 0 0)
(-0.00136094 0 0)
(-0.00137405 0 0)
(-0.0013869 0 0)
(-0.00139948 0 0)
(-0.0014118 0 0)
(-0.00142386 0 0)
(-0.00143567 0 0)
(-0.00144722 0 0)
(-0.00145852 0 0)
(-0.00146957 0 0)
(-0.00148038 0 0)
(-0.00149094 0 0)
(-0.00150125 0 0)
(-0.00151133 0 0)
(-0.00152118 0 0)
(-0.00153079 0 0)
(-0.00154017 0 0)
(-0.00154932 0 0)
(-0.00155825 0 0)
(-0.00156696 0 0)
(-0.00157545 0 0)
(-0.00158373 0 0)
(-0.0015918 0 0)
(-0.00159965 0 0)
(-0.00160731 0 0)
(-0.00161476 0 0)
(-0.00162201 0 0)
(-0.00162907 0 0)
(-0.00163594 0 0)
(-0.00164261 0 0)
(-0.00164911 0 0)
(-0.00165542 0 0)
(-0.00166155 0 0)
(-0.00166751 0 0)
(-0.0016733 0 0)
(-0.00167892 0 0)
(-0.00168438 0 0)
(-0.00168968 0 0)
(-0.00169482 0 0)
(-0.0016998 0 0)
(-0.00170463 0 0)
(-0.00170932 0 0)
(-0.00171386 0 0)
(-0.00171826 0 0)
(-0.00172252 0 0)
(-0.00172664 0 0)
(-0.00173064 0 0)
(-0.0017345 0 0)
(-0.00173824 0 0)
(-0.00174186 0 0)
(-0.00174536 0 0)
(-0.00174874 0 0)
(-0.00175201 0 0)
(-0.00175517 0 0)
(-0.00175822 0 0)
(-0.00176116 0 0)
(-0.00176401 0 0)
(-0.00176675 0 0)
(-0.0017694 0 0)
(-0.00177195 0 0)
(-0.00177442 0 0)
(-0.00177679 0 0)
(-0.00177908 0 0)
(-0.00178128 0 0)
(-0.00178341 0 0)
(-0.00178545 0 0)
(-0.00178742 0 0)
(-0.00178931 0 0)
(-0.00179113 0 0)
(-0.00179289 0 0)
(-0.00179457 0 0)
(-0.00179619 0 0)
(-0.00179775 0 0)
(-0.00179925 0 0)
(-0.0018007 0 0)
(-0.00180208 0 0)
(-0.00180341 0 0)
(-0.00180468 0 0)
(-0.0018059 0 0)
(-0.00180707 0 0)
(-0.0018082 0 0)
(-0.00180928 0 0)
(-0.00181031 0 0)
(-0.00181129 0 0)
(-0.00181224 0 0)
(-0.00181315 0 0)
(-0.00181402 0 0)
(-0.00181485 0 0)
(-0.00181564 0 0)
(-0.0018164 0 0)
(-0.00181713 0 0)
(-0.00181783 0 0)
(-0.00181849 0 0)
(-0.00181913 0 0)
(-0.00181973 0 0)
(-0.00182031 0 0)
(-0.00182087 0 0)
(-0.00182139 0 0)
(-0.0018219 0 0)
(-0.00182238 0 0)
(-0.00182284 0 0)
(-0.00182327 0 0)
(-0.00182369 0 0)
(-0.00182409 0 0)
(-0.00182447 0 0)
(-0.00182483 0 0)
(-0.00182517 0 0)
(-0.0018255 0 0)
(-0.00182581 0 0)
(-0.0018261 0 0)
(-0.00182638 0 0)
(-0.00182665 0 0)
(-0.0018269 0 0)
(-0.00182714 0 0)
(-0.00182737 0 0)
(-0.00182759 0 0)
(-0.00182779 0 0)
(-0.00182799 0 0)
(-0.00182817 0 0)
(-0.00182835 0 0)
(-0.00182852 0 0)
(-0.00182867 0 0)
(-0.00182882 0 0)
(-0.00182897 0 0)
(-0.0018291 0 0)
(-0.00182923 0 0)
(-0.00182935 0 0)
(-0.00182946 0 0)
(-0.00182957 0 0)
(-0.00182967 0 0)
(-0.00182977 0 0)
(-0.00182986 0 0)
(-0.00182994 0 0)
(-0.00183002 0 0)
(-0.0018301 0 0)
(-0.00183017 0 0)
(-0.00183024 0 0)
(-0.0018303 0 0)
(-0.00183036 0 0)
(-0.00183042 0 0)
(-0.00183047 0 0)
(-0.00183052 0 0)
(-0.00183057 0 0)
(-0.00183061 0 0)
(-0.00183066 0 0)
(-0.0018307 0 0)
(-0.00183073 0 0)
(-0.00183077 0 0)
(-0.0018308 0 0)
(-0.00183083 0 0)
(-0.00183086 0 0)
(-0.00183088 0 0)
(-0.00183091 0 0)
(-0.00183093 0 0)
(-0.00183095 0 0)
(-0.00183097 0 0)
(-0.00183099 0 0)
(-0.00183101 0 0)
(-0.00183102 0 0)
(-0.00183104 0 0)
(-0.00183105 0 0)
(-0.00183107 0 0)
(-0.00183108 0 0)
(-0.00183109 0 0)
(-0.0018311 0 0)
(-0.00183111 0 0)
(-0.00183111 0 0)
(-0.00183112 0 0)
(-0.00183113 0 0)
(-0.00183114 0 0)
(-0.00183114 0 0)
(-0.00183115 0 0)
(-0.00183115 0 0)
(-0.00183115 0 0)
(-0.00183116 0 0)
(-0.00183116 0 0)
(-0.00183116 0 0)
(-0.00183117 0 0)
(-0.00183117 0 0)
(-0.00183117 0 0)
(-0.00183117 0 0)
(-0.00183117 0 0)
(-0.00183117 0 0)
(-0.00183117 0 0)
(-0.00183117 0 0)
(-0.00183117 0 0)
(-0.00183118 0 0)
(-0.00183117 0 0)
(-0.00183117 0 0)
(-0.00183117 0 0)
(-0.00183117 0 0)
(-0.00183117 0 0)
(-0.00183116 0 0)
(-0.00183117 0 0)
(-0.00183116 0 0)
(-0.00183116 0 0)
(-0.00183116 0 0)
(-0.00183115 0 0)
(-0.00183116 0 0)
(-0.00183115 0 0)
(-0.00183115 0 0)
(-0.00183115 0 0)
(-0.00183114 0 0)
(-0.00183115 0 0)
(-0.00183114 0 0)
(-0.00183114 0 0)
(-0.00183114 0 0)
(-0.00183113 0 0)
(-0.00183113 0 0)
(-0.00183113 0 0)
(-0.00183113 0 0)
(-0.00183112 0 0)
(-0.00183112 0 0)
(-0.00183112 0 0)
(-0.00183111 0 0)
(-0.00183111 0 0)
(-0.0018311 0 0)
(-0.0018311 0 0)
(-0.0018311 0 0)
(-0.00183109 0 0)
(-0.0018311 0 0)
(-0.00183109 0 0)
(-0.00183109 0 0)
(-0.00183109 0 0)
(-0.00183108 0 0)
(-0.00183108 0 0)
(-0.00183107 0 0)
(-0.00183107 0 0)
(-0.00183107 0 0)
(-0.00183106 0 0)
(-0.00183107 0 0)
(-0.00183106 0 0)
(-0.00183106 0 0)
(-0.00183106 0 0)
(-0.00183106 0 0)
(-0.00183105 0 0)
(-0.00183105 0 0)
(-0.00183105 0 0)
(-0.00183104 0 0)
(-0.00183105 0 0)
(-0.00183104 0 0)
(-0.00183104 0 0)
(-0.00183104 0 0)
(-0.00183103 0 0)
(-0.00183103 0 0)
(-0.00183103 0 0)
(-0.00183103 0 0)
(-0.00183102 0 0)
(-0.00183102 0 0)
(-0.00183102 0 0)
(-0.00183102 0 0)
(-0.00183102 0 0)
(-0.00183101 0 0)
(-0.00183102 0 0)
(-0.00183101 0 0)
(-0.00183101 0 0)
(-0.00183101 0 0)
(-0.00183101 0 0)
(-0.001831 0 0)
(-0.00183101 0 0)
(-0.001831 0 0)
(-0.001831 0 0)
(-0.001831 0 0)
(-0.001831 0 0)
(-0.001831 0 0)
(-0.001831 0 0)
(-0.001831 0 0)
(-0.00183099 0 0)
(-0.001831 0 0)
(-0.00183099 0 0)
(-0.001831 0 0)
(-0.00183099 0 0)
(-0.00183099 0 0)
(-0.001831 0 0)
(-0.00183099 0 0)
(-0.00183099 0 0)
(-0.00183099 0 0)
(-0.00183099 0 0)
(-0.00183099 0 0)
(-0.00183099 0 0)
(-0.00183099 0 0)
(-0.00183099 0 0)
(-0.00183099 0 0)
(-0.00183099 0 0)
(-0.00183099 0 0)
(-0.00183099 0 0)
(-0.00183099 0 0)
(-0.00183099 0 0)
(-0.00183099 0 0)
(-0.00183099 0 0)
(-0.00183099 0 0)
(-0.00183099 0 0)
(-0.00183099 0 0)
(-0.001831 0 0)
(-0.001831 0 0)
(-0.00183099 0 0)
(-0.001831 0 0)
(-0.001831 0 0)
(-0.001831 0 0)
(-0.001831 0 0)
(-0.001831 0 0)
(-0.001831 0 0)
(-0.001831 0 0)
(-0.001831 0 0)
(-0.001831 0 0)
(-0.001831 0 0)
(-0.00183101 0 0)
(-0.001831 0 0)
(-0.00183101 0 0)
(-0.00183101 0 0)
(-0.00183101 0 0)
(-0.00183101 0 0)
(-0.00183101 0 0)
(-0.00183101 0 0)
(-0.00183101 0 0)
(-0.00183101 0 0)
(-0.00183101 0 0)
(-0.00183101 0 0)
(-0.00183101 0 0)
(-0.00183101 0 0)
(-0.00183102 0 0)
(-0.00183102 0 0)
(-0.00183102 0 0)
(-0.00183102 0 0)
(-0.00183102 0 0)
(-0.00183102 0 0)
(-0.00183102 0 0)
(-0.00183102 0 0)
(-0.00183102 0 0)
(-0.00183102 0 0)
(-0.00183102 0 0)
(-0.00183102 0 0)
(-0.00183102 0 0)
(-0.00183102 0 0)
(-0.00183103 0 0)
(-0.00183103 0 0)
(-0.00183103 0 0)
(-0.00183103 0 0)
(-0.00183103 0 0)
(-0.00183103 0 0)
(-0.00183103 0 0)
(-0.00183103 0 0)
(-0.00183103 0 0)
(-0.00183103 0 0)
(-0.00183103 0 0)
(-0.00183103 0 0)
(-0.00183103 0 0)
(-0.00183103 0 0)
(-0.00183103 0 0)
(-0.00183103 0 0)
(-0.00183103 0 0)
(-0.00183103 0 0)
(-0.00183103 0 0)
(-0.00183103 0 0)
(-0.00183103 0 0)
(-0.00183103 0 0)
(-0.00183103 0 0)
(-0.00183103 0 0)
(-0.00183103 0 0)
(-0.00183103 0 0)
(-0.00183103 0 0)
(-0.00183103 0 0)
(-0.00183103 0 0)
(-0.00183103 0 0)
(-0.00183103 0 0)
(-0.00183103 0 0)
(-0.00183103 0 0)
(-0.00183103 0 0)
(-0.00183103 0 0)
(-0.00183103 0 0)
(-0.00183103 0 0)
(-0.00183103 0 0)
(-0.00183103 0 0)
(-0.00183103 0 0)
(-0.00183103 0 0)
(-0.00183103 0 0)
(-0.00183103 0 0)
(-0.00183103 0 0)
(-0.00183103 0 0)
(-0.00183103 0 0)
(-0.00183103 0 0)
(-0.00183103 0 0)
(-0.00183103 0 0)
(-0.00183103 0 0)
(-0.00183103 0 0)
(-0.00183103 0 0)
(-0.00183103 0 0)
(-0.00183103 0 0)
(-0.00183103 0 0)
(-0.00183103 0 0)
(-0.00183103 0 0)
(-0.00183103 0 0)
(-0.00183103 0 0)
(-0.00183103 0 0)
(-0.00183103 0 0)
(-0.00183103 0 0)
(-0.00183103 0 0)
(-0.00183103 0 0)
(-0.00183103 0 0)
(-0.00183103 0 0)
(-0.00183103 0 0)
(-0.00183103 0 0)
(-0.00183103 0 0)
(-0.00183103 0 0)
(-0.00183103 0 0)
(-0.00183102 0 0)
(-0.00183103 0 0)
(-0.00183102 0 0)
(-0.00183103 0 0)
(-0.00183102 0 0)
(-0.00183103 0 0)
(-0.00183103 0 0)
(-0.00183102 0 0)
(-0.00183103 0 0)
(-0.00183102 0 0)
(-0.00183103 0 0)
(-0.00183102 0 0)
(-0.00183103 0 0)
(-0.00183103 0 0)
(-0.00183102 0 0)
(-0.00183103 0 0)
(-0.00183102 0 0)
(-0.00183103 0 0)
(-0.00183102 0 0)
(-0.00183103 0 0)
(-0.00183103 0 0)
(-0.00183102 0 0)
(-0.00183103 0 0)
(-0.00183102 0 0)
(-0.00183103 0 0)
(-0.00183102 0 0)
(-0.00183103 0 0)
(-0.00183102 0 0)
(-0.00183103 0 0)
(-0.00183102 0 0)
(-0.00183103 0 0)
(-0.00183103 0 0)
(-0.00183102 0 0)
(-0.00183103 0 0)
(-0.00183102 0 0)
(-0.00183103 0 0)
(-0.00183103 0 0)
(-0.00183102 0 0)
(-0.00183103 0 0)
(-0.00183103 0 0)
(-0.00183102 0 0)
(-0.00183103 0 0)
(-0.00183102 0 0)
(-0.00183103 0 0)
(-0.00183102 0 0)
(-0.00183103 0 0)
(-0.00183103 0 0)
(-0.00183102 0 0)
(-0.00183103 0 0)
(-0.00183102 0 0)
(-0.00183102 0 0)
(-0.00183102 0 0)
(-0.00183102 0 0)
(-0.00183102 0 0)
(-0.00183102 0 0)
(-0.00183102 0 0)
(-0.00183102 0 0)
(-0.00183102 0 0)
(-0.00183102 0 0)
(-0.00183102 0 0)
(-0.00183102 0 0)
(-0.00183102 0 0)
(-0.00183102 0 0)
(-0.00183102 0 0)
(-0.00183102 0 0)
(-0.00183102 0 0)
(-0.00183102 0 0)
(-0.00183102 0 0)
(-0.00183101 0 0)
(-0.00183102 0 0)
(-0.00183102 0 0)
(-0.00183101 0 0)
(-0.00183102 0 0)
(-0.00183101 0 0)
(-0.00183102 0 0)
(-0.00183101 0 0)
(-0.00183101 0 0)
(-0.00183101 0 0)
(-0.00183101 0 0)
(-0.00183101 0 0)
(-0.00183101 0 0)
(-0.00183101 0 0)
(-0.00183101 0 0)
(-0.00183101 0 0)
(-0.00183101 0 0)
(-0.00183101 0 0)
(-0.00183101 0 0)
(-0.001831 0 0)
(-0.00183101 0 0)
(-0.001831 0 0)
(-0.00183101 0 0)
(-0.00183101 0 0)
(-0.001831 0 0)
(-0.001831 0 0)
(-0.001831 0 0)
(-0.001831 0 0)
(-0.001831 0 0)
(-0.001831 0 0)
(-0.001831 0 0)
(-0.001831 0 0)
(-0.001831 0 0)
(-0.001831 0 0)
(-0.001831 0 0)
(-0.001831 0 0)
(-0.00183099 0 0)
(-0.001831 0 0)
(-0.00183099 0 0)
(-0.001831 0 0)
(-0.00183099 0 0)
(-0.001831 0 0)
(-0.001831 0 0)
(-0.00183099 0 0)
(-0.001831 0 0)
(-0.00183099 0 0)
(-0.00183099 0 0)
(-0.00183099 0 0)
(-0.001831 0 0)
(-0.00183099 0 0)
(-0.00183099 0 0)
(-0.00183099 0 0)
(-0.00183099 0 0)
(-0.00183099 0 0)
(-0.00183099 0 0)
(-0.00183099 0 0)
(-0.00183099 0 0)
(-0.00183099 0 0)
(-0.00183099 0 0)
(-0.00183099 0 0)
(-0.00183099 0 0)
(-0.00183099 0 0)
(-0.00183099 0 0)
(-0.00183099 0 0)
(-0.00183099 0 0)
(-0.00183099 0 0)
(-0.001831 0 0)
(-0.00183099 0 0)
(-0.00183099 0 0)
(-0.00183099 0 0)
(-0.001831 0 0)
(-0.00183099 0 0)
(-0.001831 0 0)
(-0.00183099 0 0)
(-0.001831 0 0)
(-0.001831 0 0)
(-0.001831 0 0)
(-0.001831 0 0)
(-0.00183099 0 0)
(-0.001831 0 0)
(-0.001831 0 0)
(-0.001831 0 0)
(-0.001831 0 0)
(-0.001831 0 0)
(-0.001831 0 0)
(-0.001831 0 0)
(-0.001831 0 0)
(-0.001831 0 0)
(-0.001831 0 0)
(-0.001831 0 0)
(-0.001831 0 0)
(-0.001831 0 0)
(-0.001831 0 0)
(-0.001831 0 0)
(-0.00183101 0 0)
(-0.001831 0 0)
(-0.001831 0 0)
(-0.001831 0 0)
(-0.001831 0 0)
(-0.001831 0 0)
(-0.001831 0 0)
(-0.001831 0 0)
(-0.001831 0 0)
(-0.00183101 0 0)
(-0.001831 0 0)
(-0.00183101 0 0)
(-0.001831 0 0)
(-0.001831 0 0)
(-0.001831 0 0)
(-0.00183101 0 0)
(-0.001831 0 0)
(-0.001831 0 0)
(-0.001831 0 0)
(-0.001831 0 0)
(-0.001831 0 0)
(-0.001831 0 0)
(-0.001831 0 0)
(-0.001831 0 0)
(-0.001831 0 0)
(-0.001831 0 0)
(-0.001831 0 0)
(-0.001831 0 0)
(-0.001831 0 0)
(-0.001831 0 0)
(-0.00183099 0 0)
(-0.001831 0 0)
(-0.00183099 0 0)
(-0.001831 0 0)
(-0.00183099 0 0)
(-0.00183099 0 0)
(-0.00183099 0 0)
(-0.00183099 0 0)
(-0.00183099 0 0)
(-0.00183098 0 0)
(-0.00183099 0 0)
(-0.00183098 0 0)
(-0.00183098 0 0)
(-0.00183098 0 0)
(-0.00183098 0 0)
(-0.00183098 0 0)
(-0.00183097 0 0)
(-0.00183098 0 0)
(-0.00183097 0 0)
(-0.00183097 0 0)
(-0.00183097 0 0)
(-0.00183097 0 0)
(-0.00183097 0 0)
(-0.00183096 0 0)
(-0.00183097 0 0)
(-0.00183096 0 0)
(-0.00183096 0 0)
(-0.00183096 0 0)
(-0.00183096 0 0)
(-0.00183096 0 0)
(-0.00183096 0 0)
(-0.00183095 0 0)
(-0.00183096 0 0)
(-0.00183095 0 0)
(-0.00183095 0 0)
(-0.00183095 0 0)
(-0.00183094 0 0)
(-0.00183095 0 0)
(-0.00183094 0 0)
(-0.00183094 0 0)
(-0.00183094 0 0)
(-0.00183094 0 0)
(-0.00183094 0 0)
(-0.00183094 0 0)
(-0.00183093 0 0)
(-0.00183094 0 0)
(-0.00183093 0 0)
(-0.00183093 0 0)
(-0.00183093 0 0)
(-0.00183093 0 0)
(-0.00183094 0 0)
(-0.00183093 0 0)
(-0.00183093 0 0)
(-0.00183093 0 0)
(-0.00183093 0 0)
(-0.00183093 0 0)
(-0.00183093 0 0)
(-0.00183093 0 0)
(-0.00183093 0 0)
(-0.00183093 0 0)
(-0.00183093 0 0)
(-0.00183093 0 0)
(-0.00183093 0 0)
(-0.00183093 0 0)
(-0.00183093 0 0)
(-0.00183093 0 0)
(-0.00183093 0 0)
(-0.00183093 0 0)
(-0.00183093 0 0)
(-0.00183093 0 0)
(-0.00183093 0 0)
(-0.00183093 0 0)
(-0.00183093 0 0)
(-0.00183094 0 0)
(-0.00183094 0 0)
(-0.00183094 0 0)
(-0.00183094 0 0)
(-0.00183094 0 0)
(-0.00183094 0 0)
(-0.00183094 0 0)
(-0.00183094 0 0)
(-0.00183095 0 0)
(-0.00183095 0 0)
(-0.00183095 0 0)
(-0.00183095 0 0)
(-0.00183095 0 0)
(-0.00183095 0 0)
(-0.00183096 0 0)
(-0.00183096 0 0)
(-0.00183096 0 0)
(-0.00183096 0 0)
(-0.00183096 0 0)
(-0.00183097 0 0)
(-0.00183097 0 0)
(-0.00183097 0 0)
(-0.00183097 0 0)
(-0.00183097 0 0)
(-0.00183097 0 0)
(-0.00183098 0 0)
(-0.00183098 0 0)
(-0.00183098 0 0)
(-0.00183098 0 0)
(-0.00183098 0 0)
(-0.00183098 0 0)
(-0.00183098 0 0)
(-0.00183098 0 0)
(-0.00183099 0 0)
(-0.00183099 0 0)
(-0.00183099 0 0)
(-0.00183099 0 0)
(-0.00183099 0 0)
(-0.00183099 0 0)
(-0.00183099 0 0)
(-0.00183099 0 0)
(-0.00183099 0 0)
(-0.00183099 0 0)
(-0.00183099 0 0)
(-0.001831 0 0)
(-0.00183099 0 0)
(-0.001831 0 0)
(-0.001831 0 0)
(-0.001831 0 0)
(-0.001831 0 0)
(-0.001831 0 0)
(-0.001831 0 0)
(-0.001831 0 0)
(-0.001831 0 0)
(-0.001831 0 0)
(-0.001831 0 0)
(-0.001831 0 0)
(-0.001831 0 0)
(-0.001831 0 0)
(-0.001831 0 0)
(-0.001831 0 0)
(-0.001831 0 0)
(-0.00183101 0 0)
(-0.00183101 0 0)
(-0.00183101 0 0)
(-0.00183101 0 0)
(-0.00183101 0 0)
(-0.00183102 0 0)
(-0.00183102 0 0)
(-0.00183102 0 0)
(-0.00183103 0 0)
(-0.00183103 0 0)
(-0.00183104 0 0)
(-0.00183105 0 0)
(-0.00183105 0 0)
(-0.00183106 0 0)
(-0.00183107 0 0)
(-0.00183108 0 0)
(-0.00183109 0 0)
(-0.00183111 0 0)
(-0.00183112 0 0)
(-0.00183114 0 0)
(-0.00183116 0 0)
(-0.00183118 0 0)
(-0.0018312 0 0)
(-0.00183122 0 0)
(-0.00183125 0 0)
(-0.00183128 0 0)
(-0.00183132 0 0)
(-0.00183136 0 0)
(-0.0018314 0 0)
(-0.00183144 0 0)
(-0.0018315 0 0)
(-0.00183155 0 0)
(-0.00183161 0 0)
(-0.00183168 0 0)
(-0.00183176 0 0)
(-0.00183184 0 0)
(-0.00183193 0 0)
(-0.00183202 0 0)
(-0.00183213 0 0)
(-0.00183225 0 0)
(-0.00183238 0 0)
(-0.00183251 0 0)
(-0.00183267 0 0)
(-0.00183283 0 0)
(-0.00183301 0 0)
(-0.00183321 0 0)
(-0.00183342 0 0)
(-0.00183365 0 0)
(-0.00183391 0 0)
(-0.00183418 0 0)
(-0.00183448 0 0)
(-0.0018348 0 0)
(-0.00183515 0 0)
(-0.00183553 0 0)
(-0.00183594 0 0)
(-0.00183638 0 0)
(-0.00183686 0 0)
(-0.00183737 0 0)
(-0.00183793 0 0)
(-0.00183853 0 0)
(-0.00183918 0 0)
(-0.00183988 0 0)
(-0.00184064 0 0)
(-0.00184145 0 0)
(-0.00184232 0 0)
(-0.00184326 0 0)
(-0.00184426 0 0)
(-0.00184534 0 0)
(-0.0018465 0 0)
(-0.00184775 0 0)
(-0.00184908 0 0)
(-0.00185051 0 0)
(-0.00185203 0 0)
(-0.00185367 0 0)
(-0.00185541 0 0)
(-0.00185728 0 0)
(-0.00185926 0 0)
(-0.00186139 0 0)
(-0.00186365 0 0)
(-0.00186606 0 0)
(-0.00186862 0 0)
(-0.00187135 0 0)
(-0.00187426 0 0)
(-0.00187734 0 0)
(-0.00188061 0 0)
(-0.00188408 0 0)
(-0.00188777 0 0)
(-0.00189167 0 0)
(-0.0018958 0 0)
(-0.00190017 0 0)
(-0.0019048 0 0)
(-0.00190968 0 0)
(-0.00191484 0 0)
(-0.00192029 0 0)
(-0.00192603 0 0)
(-0.00193208 0 0)
(-0.00193845 0 0)
(-0.00194516 0 0)
(-0.00195221 0 0)
(-0.00195962 0 0)
(-0.0019674 0 0)
(-0.00197557 0 0)
(-0.00198413 0 0)
(-0.0019931 0 0)
(-0.0020025 0 0)
(-0.00201234 0 0)
(-0.00202262 0 0)
(-0.00203336 0 0)
(-0.00204458 0 0)
(-0.00205629 0 0)
(-0.00206849 0 0)
(-0.00208121 0 0)
(-0.00209444 0 0)
(-0.00210821 0 0)
(-0.00212253 0 0)
(-0.0021374 0 0)
(-0.00215283 0 0)
(-0.00216883 0 0)
(-0.00218542 0 0)
(-0.0022026 0 0)
(-0.00222037 0 0)
(-0.00223874 0 0)
(-0.00225772 0 0)
(-0.00227732 0 0)
(-0.00229753 0 0)
(-0.00231835 0 0)
(-0.00233979 0 0)
(-0.00236185 0 0)
(-0.00238453 0 0)
(-0.00240782 0 0)
(-0.00243171 0 0)
(-0.00245621 0 0)
(-0.0024813 0 0)
(-0.00250697 0 0)
(-0.00253322 0 0)
(-0.00256002 0 0)
(-0.00258737 0 0)
(-0.00261524 0 0)
(-0.00264362 0 0)
(-0.00267249 0 0)
(-0.00270181 0 0)
(-0.00273156 0 0)
(-0.00276172 0 0)
(-0.00279225 0 0)
(-0.00282311 0 0)
(-0.00285427 0 0)
(-0.00288569 0 0)
(-0.00291732 0 0)
(-0.00294912 0 0)
(-0.00298104 0 0)
(-0.00301301 0 0)
(-0.00304499 0 0)
(-0.00307692 0 0)
(-0.00310872 0 0)
(-0.00314034 0 0)
(-0.00317169 0 0)
(-0.00320269 0 0)
(-0.00323328 0 0)
(-0.00326335 0 0)
(-0.00329283 0 0)
(-0.0033216 0 0)
(-0.00334958 0 0)
(-0.00337666 0 0)
(-0.00340272 0 0)
(-0.00342765 0 0)
(-0.00345132 0 0)
(-0.00347365 0 0)
(-0.00349455 0 0)
(-0.00351371 0 0)
(-0.00353075 0 0)
(-0.00354552 0 0)
(-0.00355799 0 0)
(-0.00356805 0 0)
(-0.00357562 0 0)
(-0.0035803 0 0)
(-0.0035819 0 0)
(-0.00358017 0 0)
(-0.00357472 0 0)
(-0.00356536 0 0)
(-0.00355167 0 0)
(-0.00353333 0 0)
(-0.00350998 0 0)
(-0.00348121 0 0)
(-0.0034466 0 0)
(-0.00340571 0 0)
(-0.00335807 0 0)
(-0.00330319 0 0)
(-0.00324057 0 0)
(-0.00316968 0 0)
(-0.00308999 0 0)
(-0.00300093 0 0)
(-0.00290221 0 0)
(-0.00279386 0 0)
(-0.00267546 0 0)
(-0.00254114 0 0)
(-0.00237831 0 0)
(-0.00221434 0 0)
)
;

boundaryField
{
    fixedWall
    {
        type            fixedValue;
        value           uniform (0 0 0);
    }
    outlet
    {
        type            pressureInletOutletVelocity;
        value           uniform (-0.00221434 0 0);
    }
    defaultFaces
    {
        type            empty;
    }
}


// ************************************************************************* //
