/*--------------------------------*- C++ -*----------------------------------*\
| =========                 |                                                 |
| \\      /  F ield         | OpenFOAM: The Open Source CFD Toolbox           |
|  \\    /   O peration     | Version:  2406                                  |
|   \\  /    A nd           | Website:  www.openfoam.com                      |
|    \\/     M anipulation  |                                                 |
\*---------------------------------------------------------------------------*/
FoamFile
{
    version     2.0;
    format      ascii;
    arch        "LSB;label=32;scalar=64";
    class       surfaceScalarField;
    location    "13.3";
    object      phi;
}
// * * * * * * * * * * * * * * * * * * * * * * * * * * * * * * * * * * * * * //

dimensions      [1 0 -1 0 0 0 0];

oriented        oriented;

internalField   nonuniform List<scalar> 
999
(
-1.19432e-08
-4.05789e-08
-8.02392e-08
-1.2734e-07
-1.79508e-07
-2.35137e-07
-2.93095e-07
-3.52584e-07
-4.1303e-07
-4.73996e-07
-5.35171e-07
-5.96317e-07
-6.57251e-07
-7.17839e-07
-7.77981e-07
-8.37594e-07
-8.96624e-07
-9.55023e-07
-1.01276e-06
-1.06981e-06
-1.12616e-06
-1.18179e-06
-1.23671e-06
-1.2909e-06
-1.34436e-06
-1.3971e-06
-1.44911e-06
-1.50041e-06
-1.55099e-06
-1.60087e-06
-1.65005e-06
-1.69853e-06
-1.74632e-06
-1.79344e-06
-1.83988e-06
-1.88566e-06
-1.93078e-06
-1.97526e-06
-2.01909e-06
-2.06229e-06
-2.10486e-06
-2.14682e-06
-2.18816e-06
-2.2289e-06
-2.26904e-06
-2.30859e-06
-2.34756e-06
-2.38595e-06
-2.42376e-06
-2.46102e-06
-2.49772e-06
-2.53387e-06
-2.56947e-06
-2.60453e-06
-2.63907e-06
-2.67307e-06
-2.70655e-06
-2.73952e-06
-2.77198e-06
-2.80393e-06
-2.83538e-06
-2.86634e-06
-2.89681e-06
-2.9268e-06
-2.95631e-06
-2.98534e-06
-3.01391e-06
-3.04202e-06
-3.06966e-06
-3.09685e-06
-3.1236e-06
-3.1499e-06
-3.17576e-06
-3.20119e-06
-3.22618e-06
-3.25075e-06
-3.2749e-06
-3.29864e-06
-3.32196e-06
-3.34487e-06
-3.36739e-06
-3.3895e-06
-3.41122e-06
-3.43255e-06
-3.4535e-06
-3.47407e-06
-3.49426e-06
-3.51407e-06
-3.53352e-06
-3.55261e-06
-3.57133e-06
-3.5897e-06
-3.60772e-06
-3.6254e-06
-3.64273e-06
-3.65973e-06
-3.67638e-06
-3.69272e-06
-3.70872e-06
-3.72441e-06
-3.73977e-06
-3.75483e-06
-3.76958e-06
-3.78402e-06
-3.79816e-06
-3.812e-06
-3.82555e-06
-3.83882e-06
-3.8518e-06
-3.8645e-06
-3.87693e-06
-3.88908e-06
-3.90097e-06
-3.91259e-06
-3.92395e-06
-3.93505e-06
-3.94591e-06
-3.95651e-06
-3.96687e-06
-3.97699e-06
-3.98687e-06
-3.99652e-06
-4.00595e-06
-4.01514e-06
-4.02412e-06
-4.03288e-06
-4.04142e-06
-4.04976e-06
-4.05789e-06
-4.06581e-06
-4.07354e-06
-4.08107e-06
-4.08842e-06
-4.09557e-06
-4.10254e-06
-4.10933e-06
-4.11594e-06
-4.12237e-06
-4.12864e-06
-4.13474e-06
-4.14067e-06
-4.14645e-06
-4.15206e-06
-4.15753e-06
-4.16284e-06
-4.168e-06
-4.17302e-06
-4.1779e-06
-4.18264e-06
-4.18724e-06
-4.19171e-06
-4.19606e-06
-4.20028e-06
-4.20437e-06
-4.20834e-06
-4.21219e-06
-4.21593e-06
-4.21956e-06
-4.22308e-06
-4.22649e-06
-4.22979e-06
-4.233e-06
-4.2361e-06
-4.23911e-06
-4.24203e-06
-4.24485e-06
-4.24758e-06
-4.25023e-06
-4.25279e-06
-4.25527e-06
-4.25768e-06
-4.26001e-06
-4.26225e-06
-4.26442e-06
-4.26651e-06
-4.26854e-06
-4.27049e-06
-4.27238e-06
-4.2742e-06
-4.27594e-06
-4.27761e-06
-4.27923e-06
-4.28082e-06
-4.28236e-06
-4.28384e-06
-4.28527e-06
-4.28664e-06
-4.28796e-06
-4.28924e-06
-4.29047e-06
-4.29166e-06
-4.29279e-06
-4.29389e-06
-4.29496e-06
-4.29599e-06
-4.29698e-06
-4.29793e-06
-4.29884e-06
-4.29971e-06
-4.30055e-06
-4.30136e-06
-4.30213e-06
-4.30288e-06
-4.3036e-06
-4.30429e-06
-4.30495e-06
-4.30558e-06
-4.3062e-06
-4.30678e-06
-4.30735e-06
-4.30788e-06
-4.3084e-06
-4.3089e-06
-4.30937e-06
-4.30983e-06
-4.31027e-06
-4.31069e-06
-4.31109e-06
-4.31147e-06
-4.31184e-06
-4.31219e-06
-4.31253e-06
-4.31285e-06
-4.31316e-06
-4.31346e-06
-4.31374e-06
-4.31401e-06
-4.31427e-06
-4.31452e-06
-4.31476e-06
-4.31499e-06
-4.3152e-06
-4.31541e-06
-4.3156e-06
-4.31579e-06
-4.31597e-06
-4.31614e-06
-4.3163e-06
-4.31646e-06
-4.31661e-06
-4.31675e-06
-4.31688e-06
-4.31701e-06
-4.31713e-06
-4.31724e-06
-4.31735e-06
-4.31745e-06
-4.31755e-06
-4.31765e-06
-4.31774e-06
-4.31782e-06
-4.3179e-06
-4.31797e-06
-4.31805e-06
-4.31812e-06
-4.31818e-06
-4.31824e-06
-4.3183e-06
-4.31835e-06
-4.31841e-06
-4.31845e-06
-4.3185e-06
-4.31854e-06
-4.31858e-06
-4.31862e-06
-4.31866e-06
-4.31869e-06
-4.31872e-06
-4.31875e-06
-4.31878e-06
-4.31881e-06
-4.31883e-06
-4.31886e-06
-4.31888e-06
-4.3189e-06
-4.31892e-06
-4.31894e-06
-4.31895e-06
-4.31897e-06
-4.31898e-06
-4.319e-06
-4.31901e-06
-4.31902e-06
-4.31903e-06
-4.31904e-06
-4.31905e-06
-4.31906e-06
-4.31906e-06
-4.31907e-06
-4.31907e-06
-4.31908e-06
-4.31909e-06
-4.31909e-06
-4.31909e-06
-4.3191e-06
-4.3191e-06
-4.3191e-06
-4.3191e-06
-4.3191e-06
-4.31911e-06
-4.31911e-06
-4.31911e-06
-4.31911e-06
-4.31911e-06
-4.31911e-06
-4.31911e-06
-4.31911e-06
-4.31911e-06
-4.3191e-06
-4.3191e-06
-4.3191e-06
-4.3191e-06
-4.3191e-06
-4.3191e-06
-4.3191e-06
-4.31909e-06
-4.31909e-06
-4.31909e-06
-4.31909e-06
-4.31908e-06
-4.31908e-06
-4.31908e-06
-4.31908e-06
-4.31908e-06
-4.31907e-06
-4.31907e-06
-4.31907e-06
-4.31907e-06
-4.31906e-06
-4.31906e-06
-4.31906e-06
-4.31906e-06
-4.31906e-06
-4.31905e-06
-4.31905e-06
-4.31905e-06
-4.31905e-06
-4.31905e-06
-4.31904e-06
-4.31904e-06
-4.31904e-06
-4.31904e-06
-4.31904e-06
-4.31904e-06
-4.31903e-06
-4.31903e-06
-4.31903e-06
-4.31903e-06
-4.31903e-06
-4.31903e-06
-4.31903e-06
-4.31903e-06
-4.31903e-06
-4.31903e-06
-4.31902e-06
-4.31902e-06
-4.31902e-06
-4.31902e-06
-4.31902e-06
-4.31902e-06
-4.31902e-06
-4.31902e-06
-4.31902e-06
-4.31901e-06
-4.31901e-06
-4.31901e-06
-4.31901e-06
-4.31901e-06
-4.31901e-06
-4.31901e-06
-4.31901e-06
-4.31901e-06
-4.31901e-06
-4.31901e-06
-4.31901e-06
-4.31901e-06
-4.31901e-06
-4.31901e-06
-4.31901e-06
-4.31901e-06
-4.31901e-06
-4.31901e-06
-4.31901e-06
-4.31901e-06
-4.31901e-06
-4.31901e-06
-4.31901e-06
-4.31901e-06
-4.31901e-06
-4.31901e-06
-4.31901e-06
-4.31901e-06
-4.31901e-06
-4.31901e-06
-4.31901e-06
-4.31901e-06
-4.31901e-06
-4.31901e-06
-4.31901e-06
-4.31902e-06
-4.31902e-06
-4.31902e-06
-4.31902e-06
-4.31902e-06
-4.31902e-06
-4.31902e-06
-4.31902e-06
-4.31902e-06
-4.31902e-06
-4.31902e-06
-4.31902e-06
-4.31902e-06
-4.31902e-06
-4.31902e-06
-4.31902e-06
-4.31902e-06
-4.31902e-06
-4.31902e-06
-4.31902e-06
-4.31903e-06
-4.31903e-06
-4.31903e-06
-4.31903e-06
-4.31903e-06
-4.31903e-06
-4.31903e-06
-4.31903e-06
-4.31903e-06
-4.31903e-06
-4.31903e-06
-4.31903e-06
-4.31903e-06
-4.31903e-06
-4.31903e-06
-4.31903e-06
-4.31903e-06
-4.31903e-06
-4.31903e-06
-4.31903e-06
-4.31903e-06
-4.31903e-06
-4.31903e-06
-4.31903e-06
-4.31903e-06
-4.31903e-06
-4.31903e-06
-4.31903e-06
-4.31903e-06
-4.31903e-06
-4.31903e-06
-4.31903e-06
-4.31903e-06
-4.31903e-06
-4.31903e-06
-4.31903e-06
-4.31903e-06
-4.31903e-06
-4.31903e-06
-4.31903e-06
-4.31903e-06
-4.31903e-06
-4.31903e-06
-4.31903e-06
-4.31903e-06
-4.31903e-06
-4.31903e-06
-4.31903e-06
-4.31903e-06
-4.31903e-06
-4.31903e-06
-4.31903e-06
-4.31903e-06
-4.31903e-06
-4.31903e-06
-4.31903e-06
-4.31903e-06
-4.31903e-06
-4.31903e-06
-4.31903e-06
-4.31903e-06
-4.31903e-06
-4.31903e-06
-4.31903e-06
-4.31903e-06
-4.31903e-06
-4.31903e-06
-4.31903e-06
-4.31903e-06
-4.31903e-06
-4.31903e-06
-4.31903e-06
-4.31903e-06
-4.31903e-06
-4.31903e-06
-4.31902e-06
-4.31902e-06
-4.31902e-06
-4.31902e-06
-4.31902e-06
-4.31902e-06
-4.31902e-06
-4.31902e-06
-4.31902e-06
-4.31902e-06
-4.31902e-06
-4.31902e-06
-4.31902e-06
-4.31902e-06
-4.31902e-06
-4.31902e-06
-4.31902e-06
-4.31902e-06
-4.31902e-06
-4.31902e-06
-4.31902e-06
-4.31902e-06
-4.31902e-06
-4.31902e-06
-4.31902e-06
-4.31902e-06
-4.31902e-06
-4.31902e-06
-4.31902e-06
-4.31901e-06
-4.31901e-06
-4.31901e-06
-4.31901e-06
-4.31901e-06
-4.31901e-06
-4.31901e-06
-4.31901e-06
-4.31901e-06
-4.31901e-06
-4.31901e-06
-4.31901e-06
-4.31901e-06
-4.31901e-06
-4.31901e-06
-4.31901e-06
-4.319e-06
-4.319e-06
-4.319e-06
-4.319e-06
-4.319e-06
-4.319e-06
-4.319e-06
-4.319e-06
-4.319e-06
-4.319e-06
-4.319e-06
-4.319e-06
-4.319e-06
-4.319e-06
-4.319e-06
-4.319e-06
-4.319e-06
-4.319e-06
-4.319e-06
-4.31899e-06
-4.31899e-06
-4.31899e-06
-4.31899e-06
-4.31899e-06
-4.31899e-06
-4.31899e-06
-4.31899e-06
-4.31899e-06
-4.31899e-06
-4.31899e-06
-4.31899e-06
-4.31899e-06
-4.31899e-06
-4.31899e-06
-4.31899e-06
-4.31899e-06
-4.31899e-06
-4.31899e-06
-4.31899e-06
-4.31899e-06
-4.31899e-06
-4.31899e-06
-4.31899e-06
-4.31899e-06
-4.31899e-06
-4.31899e-06
-4.31899e-06
-4.31899e-06
-4.31899e-06
-4.31899e-06
-4.31899e-06
-4.31899e-06
-4.31899e-06
-4.31899e-06
-4.31899e-06
-4.31899e-06
-4.31899e-06
-4.31899e-06
-4.31899e-06
-4.31899e-06
-4.31899e-06
-4.31899e-06
-4.31899e-06
-4.31899e-06
-4.31898e-06
-4.31898e-06
-4.31898e-06
-4.31898e-06
-4.31898e-06
-4.31898e-06
-4.31898e-06
-4.31898e-06
-4.31898e-06
-4.31898e-06
-4.31899e-06
-4.31898e-06
-4.31898e-06
-4.31899e-06
-4.31899e-06
-4.31899e-06
-4.31899e-06
-4.31899e-06
-4.31899e-06
-4.31899e-06
-4.31899e-06
-4.31899e-06
-4.31899e-06
-4.31899e-06
-4.31899e-06
-4.31899e-06
-4.31899e-06
-4.31899e-06
-4.31899e-06
-4.31899e-06
-4.31899e-06
-4.31899e-06
-4.31899e-06
-4.31899e-06
-4.31899e-06
-4.31898e-06
-4.31898e-06
-4.31898e-06
-4.31898e-06
-4.31899e-06
-4.31899e-06
-4.31899e-06
-4.31898e-06
-4.31898e-06
-4.31898e-06
-4.31898e-06
-4.31898e-06
-4.31898e-06
-4.31898e-06
-4.31898e-06
-4.31898e-06
-4.31898e-06
-4.31898e-06
-4.31898e-06
-4.31898e-06
-4.31898e-06
-4.31898e-06
-4.31897e-06
-4.31897e-06
-4.31897e-06
-4.31897e-06
-4.31897e-06
-4.31897e-06
-4.31897e-06
-4.31897e-06
-4.31897e-06
-4.31897e-06
-4.31897e-06
-4.31897e-06
-4.31896e-06
-4.31896e-06
-4.31896e-06
-4.31896e-06
-4.31896e-06
-4.31896e-06
-4.31896e-06
-4.31896e-06
-4.31896e-06
-4.31896e-06
-4.31896e-06
-4.31896e-06
-4.31895e-06
-4.31895e-06
-4.31895e-06
-4.31895e-06
-4.31895e-06
-4.31895e-06
-4.31895e-06
-4.31895e-06
-4.31895e-06
-4.31895e-06
-4.31895e-06
-4.31895e-06
-4.31895e-06
-4.31895e-06
-4.31895e-06
-4.31895e-06
-4.31895e-06
-4.31895e-06
-4.31895e-06
-4.31895e-06
-4.31896e-06
-4.31896e-06
-4.31896e-06
-4.31896e-06
-4.31896e-06
-4.31896e-06
-4.31896e-06
-4.31897e-06
-4.31897e-06
-4.31897e-06
-4.31897e-06
-4.31898e-06
-4.31898e-06
-4.31898e-06
-4.31899e-06
-4.31899e-06
-4.31899e-06
-4.319e-06
-4.319e-06
-4.31901e-06
-4.31902e-06
-4.31902e-06
-4.31903e-06
-4.31904e-06
-4.31905e-06
-4.31906e-06
-4.31907e-06
-4.31908e-06
-4.31909e-06
-4.3191e-06
-4.31911e-06
-4.31913e-06
-4.31914e-06
-4.31916e-06
-4.31918e-06
-4.3192e-06
-4.31922e-06
-4.31924e-06
-4.31926e-06
-4.31929e-06
-4.31932e-06
-4.31934e-06
-4.31937e-06
-4.31941e-06
-4.31944e-06
-4.31948e-06
-4.31952e-06
-4.31956e-06
-4.31961e-06
-4.31966e-06
-4.31971e-06
-4.31977e-06
-4.31983e-06
-4.31989e-06
-4.31996e-06
-4.32004e-06
-4.32012e-06
-4.3202e-06
-4.32029e-06
-4.32039e-06
-4.32049e-06
-4.3206e-06
-4.32072e-06
-4.32084e-06
-4.32098e-06
-4.32112e-06
-4.32127e-06
-4.32143e-06
-4.3216e-06
-4.32178e-06
-4.32198e-06
-4.32219e-06
-4.32241e-06
-4.32264e-06
-4.32289e-06
-4.32315e-06
-4.32343e-06
-4.32373e-06
-4.32405e-06
-4.32439e-06
-4.32474e-06
-4.32512e-06
-4.32553e-06
-4.32595e-06
-4.32641e-06
-4.32688e-06
-4.32739e-06
-4.32793e-06
-4.3285e-06
-4.32911e-06
-4.32974e-06
-4.33042e-06
-4.33114e-06
-4.33189e-06
-4.33269e-06
-4.33354e-06
-4.33443e-06
-4.33537e-06
-4.33637e-06
-4.33742e-06
-4.33853e-06
-4.3397e-06
-4.34093e-06
-4.34223e-06
-4.3436e-06
-4.34504e-06
-4.34656e-06
-4.34816e-06
-4.34984e-06
-4.35161e-06
-4.35348e-06
-4.35544e-06
-4.35749e-06
-4.35966e-06
-4.36193e-06
-4.36432e-06
-4.36682e-06
-4.36945e-06
-4.3722e-06
-4.3751e-06
-4.37813e-06
-4.3813e-06
-4.38463e-06
-4.38812e-06
-4.39177e-06
-4.39559e-06
-4.39959e-06
-4.40377e-06
-4.40814e-06
-4.41271e-06
-4.41749e-06
-4.42248e-06
-4.42769e-06
-4.43313e-06
-4.43881e-06
-4.44474e-06
-4.45092e-06
-4.45736e-06
-4.46408e-06
-4.47108e-06
-4.47837e-06
-4.48596e-06
-4.49386e-06
-4.50209e-06
-4.51065e-06
-4.51955e-06
-4.5288e-06
-4.53842e-06
-4.54842e-06
-4.5588e-06
-4.56958e-06
-4.58078e-06
-4.59239e-06
-4.60444e-06
-4.61694e-06
-4.6299e-06
-4.64334e-06
-4.65726e-06
-4.67168e-06
-4.68661e-06
-4.70208e-06
-4.71808e-06
-4.73464e-06
-4.75177e-06
-4.76948e-06
-4.78779e-06
-4.80671e-06
-4.82627e-06
-4.84647e-06
-4.86732e-06
-4.88885e-06
-4.91107e-06
-4.934e-06
-4.95765e-06
-4.98204e-06
-5.00718e-06
-5.03309e-06
-5.05979e-06
-5.0873e-06
-5.11563e-06
-5.14479e-06
-5.17481e-06
-5.2057e-06
-5.23748e-06
-5.27017e-06
-5.30378e-06
-5.33833e-06
-5.37385e-06
-5.41034e-06
-5.44783e-06
-5.48633e-06
-5.52587e-06
-5.56646e-06
-5.60812e-06
-5.65086e-06
-5.69472e-06
-5.7397e-06
-5.78583e-06
-5.83312e-06
-5.88159e-06
-5.93127e-06
-5.98217e-06
-6.03431e-06
-6.08772e-06
-6.14241e-06
-6.1984e-06
-6.25571e-06
-6.31437e-06
-6.37439e-06
-6.4358e-06
-6.49861e-06
-6.56285e-06
-6.62855e-06
-6.69571e-06
-6.76436e-06
-6.83454e-06
-6.90625e-06
-6.97952e-06
-7.05437e-06
-7.13084e-06
-7.20894e-06
-7.28869e-06
-7.37012e-06
-7.45327e-06
-7.53814e-06
-7.62478e-06
-7.7132e-06
-7.80343e-06
-7.89551e-06
-7.98946e-06
-8.0853e-06
-8.18308e-06
-8.28282e-06
-8.38456e-06
-8.48832e-06
-8.59414e-06
-8.70206e-06
-8.81211e-06
-8.92433e-06
-9.03876e-06
-9.15544e-06
-9.27441e-06
-9.39572e-06
-9.5194e-06
-9.6455e-06
-9.77408e-06
-9.90517e-06
-1.00388e-05
-1.0175e-05
-1.03139e-05
-1.04553e-05
-1.05994e-05
-1.0746e-05
-1.08949e-05
-1.10454e-05
-1.11968e-05
-1.13597e-05
-1.15245e-05
-1.16916e-05
-1.18614e-05
-1.20342e-05
-1.22103e-05
-1.23897e-05
-1.25727e-05
-1.27593e-05
-1.29497e-05
-1.31438e-05
-1.33418e-05
-1.35437e-05
-1.37496e-05
-1.39594e-05
-1.41732e-05
-1.43909e-05
-1.46124e-05
-1.48378e-05
-1.50669e-05
-1.52994e-05
-1.55352e-05
-1.57739e-05
-1.6015e-05
-1.62582e-05
-1.65027e-05
-1.67477e-05
-1.69921e-05
-1.72349e-05
-1.74743e-05
-1.77088e-05
-1.79359e-05
-1.81533e-05
-1.83576e-05
-1.85454e-05
-1.87122e-05
-1.8853e-05
-1.89621e-05
-1.9033e-05
)
;

boundaryField
{
    fixedWall
    {
        type            calculated;
        value           uniform 0;
    }
    outlet
    {
        type            calculated;
        value           uniform -1.90583e-05;
    }
    defaultFaces
    {
        type            empty;
    }
}


// ************************************************************************* //
