/*--------------------------------*- C++ -*----------------------------------*\
| =========                 |                                                 |
| \\      /  F ield         | OpenFOAM: The Open Source CFD Toolbox           |
|  \\    /   O peration     | Version:  2406                                  |
|   \\  /    A nd           | Website:  www.openfoam.com                      |
|    \\/     M anipulation  |                                                 |
\*---------------------------------------------------------------------------*/
FoamFile
{
    version     2.0;
    format      ascii;
    arch        "LSB;label=32;scalar=64";
    class       volScalarField;
    location    "13.3";
    object      T;
}
// * * * * * * * * * * * * * * * * * * * * * * * * * * * * * * * * * * * * * //

dimensions      [0 0 0 1 0 0 0];

internalField   nonuniform List<scalar> 
1000
(
304.093
324.74
344.02
362.13
379.224
395.422
410.823
425.509
439.545
452.99
465.894
478.297
490.238
501.749
512.858
523.591
533.971
544.018
553.75
563.185
572.337
581.22
589.847
598.23
606.379
614.304
622.014
629.519
636.825
643.94
650.872
657.626
664.209
670.626
676.883
682.985
688.937
694.743
700.408
705.935
711.329
716.593
721.731
726.747
731.643
736.423
741.09
745.646
750.094
754.438
758.679
762.82
766.863
770.812
774.667
778.431
782.106
785.695
789.199
792.619
795.959
799.219
802.402
805.509
808.542
811.502
814.391
817.211
819.963
822.648
825.268
827.825
830.319
832.752
835.125
837.44
839.698
841.899
844.046
846.14
848.181
850.17
852.11
854
855.842
857.637
859.386
861.09
862.75
864.366
865.941
867.474
868.967
870.421
871.836
873.213
874.553
875.857
877.127
878.361
879.562
880.73
881.866
882.97
884.044
885.088
886.103
887.089
888.047
888.977
889.882
890.76
891.613
892.441
893.245
894.026
894.783
895.518
896.232
896.924
897.595
898.246
898.877
899.49
900.083
900.658
901.216
901.756
902.279
902.786
903.277
903.752
904.212
904.658
905.089
905.506
905.91
906.301
906.679
907.044
907.397
907.739
908.069
908.388
908.696
908.994
909.282
909.56
909.828
910.087
910.338
910.579
910.812
911.036
911.253
911.462
911.664
911.858
912.046
912.226
912.4
912.568
912.729
912.885
913.034
913.178
913.317
913.451
913.579
913.703
913.821
913.936
914.046
914.151
914.253
914.35
914.444
914.534
914.62
914.703
914.783
914.859
914.932
915.003
915.07
915.135
915.197
915.257
915.314
915.368
915.421
915.471
915.519
915.565
915.609
915.651
915.692
915.73
915.767
915.803
915.836
915.869
915.899
915.929
915.957
915.984
916.01
916.034
916.058
916.08
916.101
916.121
916.141
916.159
916.177
916.193
916.209
916.225
916.239
916.253
916.266
916.278
916.29
916.301
916.312
916.322
916.332
916.341
916.35
916.358
916.366
916.373
916.38
916.387
916.393
916.399
916.405
916.41
916.415
916.42
916.425
916.429
916.433
916.437
916.44
916.444
916.447
916.45
916.453
916.455
916.458
916.46
916.463
916.465
916.467
916.469
916.47
916.472
916.473
916.475
916.476
916.477
916.479
916.48
916.481
916.482
916.483
916.484
916.484
916.485
916.486
916.486
916.487
916.488
916.488
916.489
916.489
916.489
916.49
916.49
916.49
916.491
916.491
916.491
916.492
916.492
916.492
916.492
916.493
916.493
916.493
916.493
916.493
916.493
916.493
916.494
916.494
916.494
916.494
916.494
916.494
916.494
916.494
916.495
916.495
916.495
916.495
916.495
916.495
916.495
916.495
916.495
916.496
916.496
916.496
916.496
916.496
916.496
916.496
916.496
916.496
916.497
916.497
916.497
916.497
916.497
916.497
916.497
916.498
916.498
916.498
916.498
916.498
916.498
916.498
916.499
916.499
916.499
916.499
916.499
916.499
916.5
916.5
916.5
916.5
916.5
916.5
916.501
916.501
916.501
916.501
916.501
916.502
916.502
916.502
916.502
916.502
916.502
916.503
916.503
916.503
916.503
916.503
916.503
916.504
916.504
916.504
916.504
916.504
916.505
916.505
916.505
916.505
916.505
916.505
916.506
916.506
916.506
916.506
916.506
916.506
916.507
916.507
916.507
916.507
916.507
916.507
916.507
916.508
916.508
916.508
916.508
916.508
916.508
916.508
916.509
916.509
916.509
916.509
916.509
916.509
916.509
916.509
916.51
916.51
916.51
916.51
916.51
916.51
916.51
916.51
916.51
916.511
916.511
916.511
916.511
916.511
916.511
916.511
916.511
916.511
916.511
916.512
916.512
916.512
916.512
916.512
916.512
916.512
916.512
916.512
916.512
916.512
916.512
916.512
916.513
916.513
916.513
916.513
916.513
916.513
916.513
916.513
916.513
916.513
916.513
916.513
916.513
916.513
916.513
916.513
916.513
916.514
916.514
916.514
916.514
916.514
916.514
916.514
916.514
916.514
916.514
916.514
916.514
916.514
916.514
916.514
916.514
916.514
916.514
916.514
916.514
916.514
916.514
916.514
916.514
916.514
916.515
916.515
916.515
916.515
916.515
916.515
916.515
916.515
916.515
916.515
916.515
916.515
916.515
916.515
916.515
916.515
916.515
916.515
916.515
916.515
916.515
916.515
916.515
916.515
916.515
916.515
916.515
916.515
916.515
916.515
916.515
916.515
916.515
916.515
916.515
916.515
916.515
916.515
916.516
916.516
916.516
916.516
916.516
916.516
916.516
916.516
916.516
916.516
916.516
916.516
916.516
916.516
916.516
916.516
916.516
916.516
916.516
916.516
916.516
916.516
916.516
916.516
916.516
916.516
916.516
916.516
916.516
916.516
916.516
916.516
916.516
916.516
916.516
916.516
916.516
916.516
916.516
916.517
916.517
916.517
916.517
916.517
916.517
916.517
916.517
916.517
916.517
916.517
916.517
916.517
916.517
916.517
916.517
916.517
916.517
916.517
916.517
916.517
916.517
916.517
916.517
916.517
916.517
916.517
916.517
916.517
916.517
916.517
916.517
916.517
916.517
916.518
916.518
916.518
916.518
916.518
916.518
916.518
916.518
916.518
916.518
916.518
916.518
916.518
916.518
916.518
916.518
916.518
916.518
916.518
916.518
916.518
916.518
916.518
916.518
916.518
916.518
916.518
916.518
916.518
916.518
916.518
916.518
916.518
916.518
916.518
916.518
916.518
916.518
916.518
916.518
916.518
916.518
916.518
916.518
916.518
916.518
916.518
916.518
916.518
916.518
916.518
916.518
916.518
916.518
916.518
916.518
916.518
916.518
916.518
916.518
916.518
916.518
916.518
916.518
916.518
916.518
916.518
916.518
916.518
916.518
916.518
916.518
916.518
916.518
916.518
916.518
916.518
916.518
916.518
916.518
916.518
916.518
916.518
916.518
916.518
916.518
916.518
916.518
916.518
916.518
916.518
916.518
916.518
916.518
916.518
916.518
916.518
916.518
916.518
916.519
916.519
916.519
916.519
916.519
916.519
916.519
916.519
916.519
916.519
916.519
916.519
916.519
916.519
916.519
916.519
916.519
916.519
916.519
916.519
916.519
916.519
916.519
916.519
916.519
916.519
916.519
916.519
916.519
916.519
916.519
916.519
916.519
916.519
916.519
916.519
916.518
916.518
916.518
916.518
916.518
916.518
916.518
916.518
916.518
916.517
916.517
916.517
916.517
916.516
916.516
916.516
916.516
916.515
916.515
916.514
916.514
916.513
916.513
916.512
916.512
916.511
916.51
916.51
916.509
916.508
916.507
916.506
916.505
916.504
916.503
916.501
916.5
916.498
916.497
916.495
916.493
916.491
916.489
916.487
916.484
916.482
916.479
916.476
916.473
916.47
916.466
916.462
916.458
916.454
916.449
916.444
916.439
916.433
916.427
916.42
916.414
916.406
916.399
916.39
916.382
916.372
916.362
916.352
916.341
916.329
916.316
916.303
916.289
916.274
916.258
916.241
916.223
916.204
916.184
916.162
916.14
916.116
916.091
916.064
916.036
916.006
915.975
915.941
915.906
915.869
915.83
915.789
915.746
915.7
915.651
915.601
915.547
915.491
915.431
915.369
915.303
915.234
915.162
915.085
915.005
914.921
914.833
914.741
914.644
914.542
914.435
914.323
914.206
914.083
913.955
913.821
913.68
913.533
913.379
913.218
913.051
912.875
912.692
912.501
912.302
912.094
911.877
911.651
911.416
911.171
910.915
910.65
910.373
910.085
909.786
909.475
909.151
908.815
908.466
908.104
907.728
907.338
906.933
906.513
906.078
905.627
905.159
904.675
904.174
903.655
903.118
902.563
901.988
901.394
900.781
900.146
899.491
898.814
898.115
897.394
896.649
895.881
895.089
894.272
893.43
892.563
891.668
890.747
889.798
888.821
887.816
886.78
885.715
884.619
883.492
882.333
881.141
879.915
878.656
877.362
876.032
874.666
873.262
871.821
870.341
868.822
867.262
865.661
864.017
862.331
860.6
858.825
857.003
855.134
853.217
851.251
849.234
847.165
845.043
842.868
840.636
838.348
836.001
833.595
831.127
828.596
826
823.338
820.608
817.808
814.935
811.989
808.966
805.865
802.684
799.419
796.069
792.631
789.102
785.479
781.76
777.942
774.02
769.993
765.856
761.606
757.239
752.752
748.14
743.4
738.526
733.515
728.362
723.063
717.612
712.009
706.293
700.363
694.258
687.972
681.5
674.838
667.978
660.915
653.642
646.155
638.446
630.509
622.339
613.929
605.274
596.368
587.206
577.784
568.098
558.144
547.92
537.425
526.659
515.622
504.318
492.751
480.927
468.856
456.549
444.019
431.285
418.366
405.288
392.078
378.768
365.398
352.007
338.646
325.367
312.231
299.305
)
;

boundaryField
{
    fixedWall
    {
        type            fixedValue;
        value           uniform 293;
    }
    outlet
    {
        type            inletOutlet;
        inletValue      uniform 293;
        value           uniform 293;
    }
    defaultFaces
    {
        type            empty;
    }
}


// ************************************************************************* //
