/*--------------------------------*- C++ -*----------------------------------*\
| =========                 |                                                 |
| \\      /  F ield         | OpenFOAM: The Open Source CFD Toolbox           |
|  \\    /   O peration     | Version:  2406                                  |
|   \\  /    A nd           | Website:  www.openfoam.com                      |
|    \\/     M anipulation  |                                                 |
\*---------------------------------------------------------------------------*/
FoamFile
{
    version     2.0;
    format      ascii;
    arch        "LSB;label=32;scalar=64";
    class       volVectorField;
    location    "13.3";
    object      U;
}
// * * * * * * * * * * * * * * * * * * * * * * * * * * * * * * * * * * * * * //

dimensions      [0 1 -1 0 0 0 0];

internalField   nonuniform List<vector> 
1000
(
(-6.2666e-07 0 0)
(-3.02449e-06 0 0)
(-7.82787e-06 0 0)
(-1.45095e-05 0 0)
(-2.26654e-05 0 0)
(-3.20502e-05 0 0)
(-4.24893e-05 0 0)
(-5.38389e-05 0 0)
(-6.59769e-05 0 0)
(-7.87998e-05 0 0)
(-9.2219e-05 0 0)
(-0.00010616 0 0)
(-0.000120557 0 0)
(-0.000135353 0 0)
(-0.0001505 0 0)
(-0.000165952 0 0)
(-0.000181672 0 0)
(-0.000197623 0 0)
(-0.000213774 0 0)
(-0.000230098 0 0)
(-0.000246569 0 0)
(-0.000263163 0 0)
(-0.00027986 0 0)
(-0.00029664 0 0)
(-0.000313485 0 0)
(-0.000330379 0 0)
(-0.000347306 0 0)
(-0.000364253 0 0)
(-0.000381207 0 0)
(-0.000398155 0 0)
(-0.000415087 0 0)
(-0.000431991 0 0)
(-0.000448858 0 0)
(-0.000465679 0 0)
(-0.000482445 0 0)
(-0.000499149 0 0)
(-0.000515782 0 0)
(-0.000532338 0 0)
(-0.000548811 0 0)
(-0.000565192 0 0)
(-0.000581478 0 0)
(-0.000597661 0 0)
(-0.000613739 0 0)
(-0.000629704 0 0)
(-0.000645553 0 0)
(-0.000661281 0 0)
(-0.000676885 0 0)
(-0.00069236 0 0)
(-0.000707703 0 0)
(-0.00072291 0 0)
(-0.000737979 0 0)
(-0.000752907 0 0)
(-0.00076769 0 0)
(-0.000782327 0 0)
(-0.000796814 0 0)
(-0.00081115 0 0)
(-0.000825333 0 0)
(-0.00083936 0 0)
(-0.000853231 0 0)
(-0.000866942 0 0)
(-0.000880494 0 0)
(-0.000893885 0 0)
(-0.000907113 0 0)
(-0.000920177 0 0)
(-0.000933077 0 0)
(-0.000945812 0 0)
(-0.000958381 0 0)
(-0.000970783 0 0)
(-0.000983018 0 0)
(-0.000995086 0 0)
(-0.00100699 0 0)
(-0.00101872 0 0)
(-0.00103028 0 0)
(-0.00104168 0 0)
(-0.00105291 0 0)
(-0.00106397 0 0)
(-0.00107486 0 0)
(-0.00108558 0 0)
(-0.00109614 0 0)
(-0.00110654 0 0)
(-0.00111676 0 0)
(-0.00112682 0 0)
(-0.00113672 0 0)
(-0.00114645 0 0)
(-0.00115602 0 0)
(-0.00116543 0 0)
(-0.00117468 0 0)
(-0.00118376 0 0)
(-0.00119269 0 0)
(-0.00120146 0 0)
(-0.00121007 0 0)
(-0.00121852 0 0)
(-0.00122682 0 0)
(-0.00123497 0 0)
(-0.00124296 0 0)
(-0.00125081 0 0)
(-0.0012585 0 0)
(-0.00126604 0 0)
(-0.00127344 0 0)
(-0.00128069 0 0)
(-0.0012878 0 0)
(-0.00129477 0 0)
(-0.00130159 0 0)
(-0.00130827 0 0)
(-0.00131482 0 0)
(-0.00132123 0 0)
(-0.00132751 0 0)
(-0.00133365 0 0)
(-0.00133966 0 0)
(-0.00134555 0 0)
(-0.0013513 0 0)
(-0.00135693 0 0)
(-0.00136243 0 0)
(-0.00136781 0 0)
(-0.00137307 0 0)
(-0.00137821 0 0)
(-0.00138323 0 0)
(-0.00138813 0 0)
(-0.00139293 0 0)
(-0.0013976 0 0)
(-0.00140217 0 0)
(-0.00140663 0 0)
(-0.00141098 0 0)
(-0.00141523 0 0)
(-0.00141937 0 0)
(-0.00142341 0 0)
(-0.00142735 0 0)
(-0.00143119 0 0)
(-0.00143493 0 0)
(-0.00143858 0 0)
(-0.00144214 0 0)
(-0.0014456 0 0)
(-0.00144898 0 0)
(-0.00145226 0 0)
(-0.00145546 0 0)
(-0.00145857 0 0)
(-0.00146161 0 0)
(-0.00146455 0 0)
(-0.00146742 0 0)
(-0.00147021 0 0)
(-0.00147293 0 0)
(-0.00147557 0 0)
(-0.00147813 0 0)
(-0.00148063 0 0)
(-0.00148305 0 0)
(-0.0014854 0 0)
(-0.00148769 0 0)
(-0.00148991 0 0)
(-0.00149207 0 0)
(-0.00149416 0 0)
(-0.00149619 0 0)
(-0.00149816 0 0)
(-0.00150007 0 0)
(-0.00150193 0 0)
(-0.00150373 0 0)
(-0.00150547 0 0)
(-0.00150716 0 0)
(-0.0015088 0 0)
(-0.00151039 0 0)
(-0.00151193 0 0)
(-0.00151342 0 0)
(-0.00151486 0 0)
(-0.00151626 0 0)
(-0.00151761 0 0)
(-0.00151892 0 0)
(-0.00152018 0 0)
(-0.00152141 0 0)
(-0.0015226 0 0)
(-0.00152374 0 0)
(-0.00152485 0 0)
(-0.00152593 0 0)
(-0.00152697 0 0)
(-0.00152797 0 0)
(-0.00152894 0 0)
(-0.00152987 0 0)
(-0.00153077 0 0)
(-0.00153164 0 0)
(-0.00153248 0 0)
(-0.00153329 0 0)
(-0.00153407 0 0)
(-0.00153482 0 0)
(-0.00153553 0 0)
(-0.00153623 0 0)
(-0.00153691 0 0)
(-0.00153757 0 0)
(-0.0015382 0 0)
(-0.00153881 0 0)
(-0.00153939 0 0)
(-0.00153995 0 0)
(-0.00154049 0 0)
(-0.00154102 0 0)
(-0.00154152 0 0)
(-0.001542 0 0)
(-0.00154247 0 0)
(-0.00154292 0 0)
(-0.00154335 0 0)
(-0.00154377 0 0)
(-0.00154417 0 0)
(-0.00154455 0 0)
(-0.00154492 0 0)
(-0.00154527 0 0)
(-0.00154561 0 0)
(-0.00154593 0 0)
(-0.00154624 0 0)
(-0.00154655 0 0)
(-0.00154683 0 0)
(-0.00154711 0 0)
(-0.00154738 0 0)
(-0.00154763 0 0)
(-0.00154788 0 0)
(-0.00154811 0 0)
(-0.00154833 0 0)
(-0.00154855 0 0)
(-0.00154875 0 0)
(-0.00154895 0 0)
(-0.00154914 0 0)
(-0.00154932 0 0)
(-0.00154949 0 0)
(-0.00154966 0 0)
(-0.00154982 0 0)
(-0.00154997 0 0)
(-0.00155011 0 0)
(-0.00155025 0 0)
(-0.00155038 0 0)
(-0.00155051 0 0)
(-0.00155063 0 0)
(-0.00155075 0 0)
(-0.00155086 0 0)
(-0.00155097 0 0)
(-0.00155107 0 0)
(-0.00155116 0 0)
(-0.00155126 0 0)
(-0.00155134 0 0)
(-0.00155143 0 0)
(-0.00155151 0 0)
(-0.00155158 0 0)
(-0.00155165 0 0)
(-0.00155172 0 0)
(-0.00155179 0 0)
(-0.00155185 0 0)
(-0.00155191 0 0)
(-0.00155197 0 0)
(-0.00155202 0 0)
(-0.00155207 0 0)
(-0.00155212 0 0)
(-0.00155217 0 0)
(-0.00155221 0 0)
(-0.00155225 0 0)
(-0.00155229 0 0)
(-0.00155233 0 0)
(-0.00155236 0 0)
(-0.0015524 0 0)
(-0.00155243 0 0)
(-0.00155246 0 0)
(-0.00155249 0 0)
(-0.00155251 0 0)
(-0.00155254 0 0)
(-0.00155256 0 0)
(-0.00155259 0 0)
(-0.00155261 0 0)
(-0.00155263 0 0)
(-0.00155265 0 0)
(-0.00155267 0 0)
(-0.00155268 0 0)
(-0.0015527 0 0)
(-0.00155271 0 0)
(-0.00155273 0 0)
(-0.00155274 0 0)
(-0.00155275 0 0)
(-0.00155277 0 0)
(-0.00155278 0 0)
(-0.00155279 0 0)
(-0.0015528 0 0)
(-0.00155281 0 0)
(-0.00155281 0 0)
(-0.00155282 0 0)
(-0.00155283 0 0)
(-0.00155284 0 0)
(-0.00155284 0 0)
(-0.00155285 0 0)
(-0.00155285 0 0)
(-0.00155286 0 0)
(-0.00155286 0 0)
(-0.00155287 0 0)
(-0.00155287 0 0)
(-0.00155288 0 0)
(-0.00155288 0 0)
(-0.00155288 0 0)
(-0.00155289 0 0)
(-0.00155289 0 0)
(-0.00155289 0 0)
(-0.00155289 0 0)
(-0.00155289 0 0)
(-0.0015529 0 0)
(-0.0015529 0 0)
(-0.0015529 0 0)
(-0.0015529 0 0)
(-0.0015529 0 0)
(-0.0015529 0 0)
(-0.0015529 0 0)
(-0.0015529 0 0)
(-0.0015529 0 0)
(-0.0015529 0 0)
(-0.0015529 0 0)
(-0.0015529 0 0)
(-0.0015529 0 0)
(-0.0015529 0 0)
(-0.0015529 0 0)
(-0.0015529 0 0)
(-0.0015529 0 0)
(-0.0015529 0 0)
(-0.0015529 0 0)
(-0.0015529 0 0)
(-0.0015529 0 0)
(-0.0015529 0 0)
(-0.0015529 0 0)
(-0.0015529 0 0)
(-0.0015529 0 0)
(-0.0015529 0 0)
(-0.0015529 0 0)
(-0.0015529 0 0)
(-0.0015529 0 0)
(-0.0015529 0 0)
(-0.0015529 0 0)
(-0.0015529 0 0)
(-0.00155289 0 0)
(-0.0015529 0 0)
(-0.00155289 0 0)
(-0.0015529 0 0)
(-0.00155289 0 0)
(-0.00155289 0 0)
(-0.00155289 0 0)
(-0.00155289 0 0)
(-0.00155289 0 0)
(-0.00155289 0 0)
(-0.00155289 0 0)
(-0.00155289 0 0)
(-0.00155289 0 0)
(-0.00155289 0 0)
(-0.00155289 0 0)
(-0.00155289 0 0)
(-0.00155289 0 0)
(-0.00155289 0 0)
(-0.00155289 0 0)
(-0.00155289 0 0)
(-0.00155289 0 0)
(-0.00155289 0 0)
(-0.00155289 0 0)
(-0.00155289 0 0)
(-0.00155289 0 0)
(-0.00155289 0 0)
(-0.00155289 0 0)
(-0.00155289 0 0)
(-0.00155289 0 0)
(-0.00155288 0 0)
(-0.00155289 0 0)
(-0.00155288 0 0)
(-0.00155289 0 0)
(-0.00155289 0 0)
(-0.00155288 0 0)
(-0.00155289 0 0)
(-0.00155288 0 0)
(-0.00155289 0 0)
(-0.00155289 0 0)
(-0.00155289 0 0)
(-0.00155289 0 0)
(-0.00155289 0 0)
(-0.00155289 0 0)
(-0.00155289 0 0)
(-0.00155289 0 0)
(-0.00155289 0 0)
(-0.00155289 0 0)
(-0.00155289 0 0)
(-0.00155289 0 0)
(-0.00155289 0 0)
(-0.00155289 0 0)
(-0.00155289 0 0)
(-0.00155289 0 0)
(-0.00155289 0 0)
(-0.00155289 0 0)
(-0.00155289 0 0)
(-0.00155289 0 0)
(-0.00155289 0 0)
(-0.00155289 0 0)
(-0.00155289 0 0)
(-0.00155289 0 0)
(-0.00155289 0 0)
(-0.00155289 0 0)
(-0.00155289 0 0)
(-0.00155289 0 0)
(-0.00155289 0 0)
(-0.00155289 0 0)
(-0.00155289 0 0)
(-0.00155289 0 0)
(-0.00155289 0 0)
(-0.00155289 0 0)
(-0.00155289 0 0)
(-0.00155289 0 0)
(-0.00155289 0 0)
(-0.0015529 0 0)
(-0.0015529 0 0)
(-0.0015529 0 0)
(-0.0015529 0 0)
(-0.0015529 0 0)
(-0.0015529 0 0)
(-0.0015529 0 0)
(-0.0015529 0 0)
(-0.0015529 0 0)
(-0.0015529 0 0)
(-0.0015529 0 0)
(-0.0015529 0 0)
(-0.0015529 0 0)
(-0.0015529 0 0)
(-0.0015529 0 0)
(-0.0015529 0 0)
(-0.0015529 0 0)
(-0.0015529 0 0)
(-0.0015529 0 0)
(-0.0015529 0 0)
(-0.0015529 0 0)
(-0.0015529 0 0)
(-0.0015529 0 0)
(-0.0015529 0 0)
(-0.0015529 0 0)
(-0.0015529 0 0)
(-0.0015529 0 0)
(-0.0015529 0 0)
(-0.0015529 0 0)
(-0.00155291 0 0)
(-0.0015529 0 0)
(-0.00155291 0 0)
(-0.00155291 0 0)
(-0.00155291 0 0)
(-0.00155291 0 0)
(-0.00155291 0 0)
(-0.00155291 0 0)
(-0.00155291 0 0)
(-0.00155291 0 0)
(-0.00155291 0 0)
(-0.00155291 0 0)
(-0.00155291 0 0)
(-0.00155291 0 0)
(-0.00155291 0 0)
(-0.00155291 0 0)
(-0.00155291 0 0)
(-0.00155291 0 0)
(-0.00155291 0 0)
(-0.00155291 0 0)
(-0.00155291 0 0)
(-0.00155291 0 0)
(-0.00155291 0 0)
(-0.00155291 0 0)
(-0.00155291 0 0)
(-0.00155291 0 0)
(-0.00155291 0 0)
(-0.00155291 0 0)
(-0.00155291 0 0)
(-0.00155291 0 0)
(-0.00155291 0 0)
(-0.00155291 0 0)
(-0.00155291 0 0)
(-0.00155291 0 0)
(-0.00155291 0 0)
(-0.00155291 0 0)
(-0.00155291 0 0)
(-0.00155291 0 0)
(-0.00155291 0 0)
(-0.00155291 0 0)
(-0.00155291 0 0)
(-0.00155291 0 0)
(-0.00155291 0 0)
(-0.00155291 0 0)
(-0.00155291 0 0)
(-0.00155291 0 0)
(-0.00155291 0 0)
(-0.00155291 0 0)
(-0.00155291 0 0)
(-0.00155291 0 0)
(-0.00155291 0 0)
(-0.00155291 0 0)
(-0.00155291 0 0)
(-0.00155291 0 0)
(-0.00155291 0 0)
(-0.00155291 0 0)
(-0.00155291 0 0)
(-0.00155291 0 0)
(-0.00155291 0 0)
(-0.00155291 0 0)
(-0.00155291 0 0)
(-0.00155291 0 0)
(-0.00155291 0 0)
(-0.00155291 0 0)
(-0.00155291 0 0)
(-0.00155291 0 0)
(-0.00155291 0 0)
(-0.00155291 0 0)
(-0.00155291 0 0)
(-0.00155291 0 0)
(-0.00155291 0 0)
(-0.00155291 0 0)
(-0.00155291 0 0)
(-0.00155291 0 0)
(-0.00155291 0 0)
(-0.00155291 0 0)
(-0.00155291 0 0)
(-0.00155291 0 0)
(-0.00155291 0 0)
(-0.00155291 0 0)
(-0.00155291 0 0)
(-0.00155291 0 0)
(-0.00155291 0 0)
(-0.00155291 0 0)
(-0.00155291 0 0)
(-0.00155291 0 0)
(-0.00155291 0 0)
(-0.00155291 0 0)
(-0.00155291 0 0)
(-0.00155291 0 0)
(-0.00155291 0 0)
(-0.00155291 0 0)
(-0.00155291 0 0)
(-0.00155291 0 0)
(-0.00155291 0 0)
(-0.00155291 0 0)
(-0.00155291 0 0)
(-0.00155291 0 0)
(-0.0015529 0 0)
(-0.00155291 0 0)
(-0.00155291 0 0)
(-0.0015529 0 0)
(-0.00155291 0 0)
(-0.0015529 0 0)
(-0.00155291 0 0)
(-0.00155291 0 0)
(-0.0015529 0 0)
(-0.00155291 0 0)
(-0.0015529 0 0)
(-0.0015529 0 0)
(-0.0015529 0 0)
(-0.0015529 0 0)
(-0.0015529 0 0)
(-0.0015529 0 0)
(-0.0015529 0 0)
(-0.0015529 0 0)
(-0.0015529 0 0)
(-0.0015529 0 0)
(-0.0015529 0 0)
(-0.0015529 0 0)
(-0.0015529 0 0)
(-0.0015529 0 0)
(-0.0015529 0 0)
(-0.0015529 0 0)
(-0.0015529 0 0)
(-0.0015529 0 0)
(-0.0015529 0 0)
(-0.0015529 0 0)
(-0.0015529 0 0)
(-0.0015529 0 0)
(-0.0015529 0 0)
(-0.0015529 0 0)
(-0.0015529 0 0)
(-0.0015529 0 0)
(-0.0015529 0 0)
(-0.0015529 0 0)
(-0.0015529 0 0)
(-0.0015529 0 0)
(-0.0015529 0 0)
(-0.0015529 0 0)
(-0.0015529 0 0)
(-0.0015529 0 0)
(-0.0015529 0 0)
(-0.0015529 0 0)
(-0.0015529 0 0)
(-0.0015529 0 0)
(-0.0015529 0 0)
(-0.0015529 0 0)
(-0.0015529 0 0)
(-0.0015529 0 0)
(-0.0015529 0 0)
(-0.0015529 0 0)
(-0.0015529 0 0)
(-0.0015529 0 0)
(-0.0015529 0 0)
(-0.0015529 0 0)
(-0.0015529 0 0)
(-0.0015529 0 0)
(-0.0015529 0 0)
(-0.0015529 0 0)
(-0.0015529 0 0)
(-0.0015529 0 0)
(-0.0015529 0 0)
(-0.0015529 0 0)
(-0.0015529 0 0)
(-0.0015529 0 0)
(-0.0015529 0 0)
(-0.0015529 0 0)
(-0.0015529 0 0)
(-0.0015529 0 0)
(-0.0015529 0 0)
(-0.0015529 0 0)
(-0.0015529 0 0)
(-0.0015529 0 0)
(-0.0015529 0 0)
(-0.0015529 0 0)
(-0.0015529 0 0)
(-0.0015529 0 0)
(-0.0015529 0 0)
(-0.0015529 0 0)
(-0.0015529 0 0)
(-0.0015529 0 0)
(-0.0015529 0 0)
(-0.0015529 0 0)
(-0.0015529 0 0)
(-0.0015529 0 0)
(-0.0015529 0 0)
(-0.0015529 0 0)
(-0.0015529 0 0)
(-0.0015529 0 0)
(-0.0015529 0 0)
(-0.0015529 0 0)
(-0.0015529 0 0)
(-0.0015529 0 0)
(-0.0015529 0 0)
(-0.0015529 0 0)
(-0.0015529 0 0)
(-0.0015529 0 0)
(-0.0015529 0 0)
(-0.0015529 0 0)
(-0.0015529 0 0)
(-0.0015529 0 0)
(-0.0015529 0 0)
(-0.0015529 0 0)
(-0.0015529 0 0)
(-0.0015529 0 0)
(-0.0015529 0 0)
(-0.0015529 0 0)
(-0.0015529 0 0)
(-0.0015529 0 0)
(-0.0015529 0 0)
(-0.0015529 0 0)
(-0.0015529 0 0)
(-0.0015529 0 0)
(-0.0015529 0 0)
(-0.0015529 0 0)
(-0.0015529 0 0)
(-0.0015529 0 0)
(-0.0015529 0 0)
(-0.0015529 0 0)
(-0.0015529 0 0)
(-0.0015529 0 0)
(-0.0015529 0 0)
(-0.0015529 0 0)
(-0.0015529 0 0)
(-0.0015529 0 0)
(-0.0015529 0 0)
(-0.0015529 0 0)
(-0.0015529 0 0)
(-0.0015529 0 0)
(-0.0015529 0 0)
(-0.00155289 0 0)
(-0.0015529 0 0)
(-0.00155289 0 0)
(-0.0015529 0 0)
(-0.00155289 0 0)
(-0.00155289 0 0)
(-0.0015529 0 0)
(-0.00155289 0 0)
(-0.00155289 0 0)
(-0.00155289 0 0)
(-0.00155289 0 0)
(-0.00155289 0 0)
(-0.00155289 0 0)
(-0.00155289 0 0)
(-0.00155289 0 0)
(-0.00155289 0 0)
(-0.00155289 0 0)
(-0.00155289 0 0)
(-0.00155289 0 0)
(-0.00155289 0 0)
(-0.00155289 0 0)
(-0.00155289 0 0)
(-0.00155289 0 0)
(-0.00155289 0 0)
(-0.00155289 0 0)
(-0.00155289 0 0)
(-0.00155289 0 0)
(-0.00155289 0 0)
(-0.00155289 0 0)
(-0.00155289 0 0)
(-0.00155289 0 0)
(-0.00155289 0 0)
(-0.00155289 0 0)
(-0.00155289 0 0)
(-0.00155289 0 0)
(-0.00155289 0 0)
(-0.00155289 0 0)
(-0.00155289 0 0)
(-0.00155289 0 0)
(-0.00155289 0 0)
(-0.00155289 0 0)
(-0.00155289 0 0)
(-0.00155289 0 0)
(-0.00155289 0 0)
(-0.00155289 0 0)
(-0.00155289 0 0)
(-0.00155289 0 0)
(-0.00155289 0 0)
(-0.00155289 0 0)
(-0.00155289 0 0)
(-0.00155289 0 0)
(-0.00155289 0 0)
(-0.00155289 0 0)
(-0.00155289 0 0)
(-0.0015529 0 0)
(-0.0015529 0 0)
(-0.0015529 0 0)
(-0.0015529 0 0)
(-0.0015529 0 0)
(-0.0015529 0 0)
(-0.0015529 0 0)
(-0.0015529 0 0)
(-0.0015529 0 0)
(-0.00155291 0 0)
(-0.00155291 0 0)
(-0.00155291 0 0)
(-0.00155291 0 0)
(-0.00155291 0 0)
(-0.00155292 0 0)
(-0.00155292 0 0)
(-0.00155292 0 0)
(-0.00155293 0 0)
(-0.00155293 0 0)
(-0.00155293 0 0)
(-0.00155294 0 0)
(-0.00155294 0 0)
(-0.00155295 0 0)
(-0.00155295 0 0)
(-0.00155296 0 0)
(-0.00155296 0 0)
(-0.00155297 0 0)
(-0.00155297 0 0)
(-0.00155298 0 0)
(-0.00155299 0 0)
(-0.001553 0 0)
(-0.001553 0 0)
(-0.00155301 0 0)
(-0.00155302 0 0)
(-0.00155303 0 0)
(-0.00155305 0 0)
(-0.00155306 0 0)
(-0.00155307 0 0)
(-0.00155308 0 0)
(-0.0015531 0 0)
(-0.00155311 0 0)
(-0.00155313 0 0)
(-0.00155315 0 0)
(-0.00155317 0 0)
(-0.00155319 0 0)
(-0.00155321 0 0)
(-0.00155323 0 0)
(-0.00155326 0 0)
(-0.00155328 0 0)
(-0.00155331 0 0)
(-0.00155334 0 0)
(-0.00155338 0 0)
(-0.00155341 0 0)
(-0.00155345 0 0)
(-0.00155349 0 0)
(-0.00155353 0 0)
(-0.00155357 0 0)
(-0.00155362 0 0)
(-0.00155367 0 0)
(-0.00155372 0 0)
(-0.00155378 0 0)
(-0.00155384 0 0)
(-0.00155391 0 0)
(-0.00155398 0 0)
(-0.00155405 0 0)
(-0.00155413 0 0)
(-0.00155421 0 0)
(-0.0015543 0 0)
(-0.00155439 0 0)
(-0.00155449 0 0)
(-0.0015546 0 0)
(-0.00155471 0 0)
(-0.00155483 0 0)
(-0.00155495 0 0)
(-0.00155509 0 0)
(-0.00155523 0 0)
(-0.00155538 0 0)
(-0.00155554 0 0)
(-0.0015557 0 0)
(-0.00155588 0 0)
(-0.00155607 0 0)
(-0.00155627 0 0)
(-0.00155648 0 0)
(-0.0015567 0 0)
(-0.00155694 0 0)
(-0.00155719 0 0)
(-0.00155745 0 0)
(-0.00155773 0 0)
(-0.00155802 0 0)
(-0.00155833 0 0)
(-0.00155866 0 0)
(-0.001559 0 0)
(-0.00155936 0 0)
(-0.00155975 0 0)
(-0.00156015 0 0)
(-0.00156057 0 0)
(-0.00156102 0 0)
(-0.00156149 0 0)
(-0.00156199 0 0)
(-0.00156251 0 0)
(-0.00156305 0 0)
(-0.00156363 0 0)
(-0.00156424 0 0)
(-0.00156487 0 0)
(-0.00156554 0 0)
(-0.00156624 0 0)
(-0.00156697 0 0)
(-0.00156774 0 0)
(-0.00156855 0 0)
(-0.0015694 0 0)
(-0.00157029 0 0)
(-0.00157122 0 0)
(-0.00157219 0 0)
(-0.00157321 0 0)
(-0.00157428 0 0)
(-0.0015754 0 0)
(-0.00157657 0 0)
(-0.00157779 0 0)
(-0.00157907 0 0)
(-0.0015804 0 0)
(-0.0015818 0 0)
(-0.00158325 0 0)
(-0.00158477 0 0)
(-0.00158635 0 0)
(-0.00158801 0 0)
(-0.00158973 0 0)
(-0.00159152 0 0)
(-0.00159339 0 0)
(-0.00159534 0 0)
(-0.00159737 0 0)
(-0.00159948 0 0)
(-0.00160168 0 0)
(-0.00160396 0 0)
(-0.00160634 0 0)
(-0.00160881 0 0)
(-0.00161137 0 0)
(-0.00161404 0 0)
(-0.0016168 0 0)
(-0.00161967 0 0)
(-0.00162265 0 0)
(-0.00162574 0 0)
(-0.00162894 0 0)
(-0.00163226 0 0)
(-0.0016357 0 0)
(-0.00163926 0 0)
(-0.00164294 0 0)
(-0.00164676 0 0)
(-0.0016507 0 0)
(-0.00165478 0 0)
(-0.001659 0 0)
(-0.00166336 0 0)
(-0.00166786 0 0)
(-0.00167251 0 0)
(-0.00167731 0 0)
(-0.00168227 0 0)
(-0.00168737 0 0)
(-0.00169264 0 0)
(-0.00169807 0 0)
(-0.00170367 0 0)
(-0.00170943 0 0)
(-0.00171536 0 0)
(-0.00172146 0 0)
(-0.00172774 0 0)
(-0.0017342 0 0)
(-0.00174084 0 0)
(-0.00174767 0 0)
(-0.00175468 0 0)
(-0.00176188 0 0)
(-0.00176926 0 0)
(-0.00177685 0 0)
(-0.00178462 0 0)
(-0.00179259 0 0)
(-0.00180077 0 0)
(-0.00180914 0 0)
(-0.00181771 0 0)
(-0.00182648 0 0)
(-0.00183546 0 0)
(-0.00184464 0 0)
(-0.00185403 0 0)
(-0.00186363 0 0)
(-0.00187343 0 0)
(-0.00188344 0 0)
(-0.00189366 0 0)
(-0.00190408 0 0)
(-0.00191471 0 0)
(-0.00192555 0 0)
(-0.00193659 0 0)
(-0.00194784 0 0)
(-0.00195929 0 0)
(-0.00197094 0 0)
(-0.00198279 0 0)
(-0.00199484 0 0)
(-0.00200709 0 0)
(-0.00201952 0 0)
(-0.00203215 0 0)
(-0.00204496 0 0)
(-0.00205796 0 0)
(-0.00207113 0 0)
(-0.00208448 0 0)
(-0.00209799 0 0)
(-0.00211168 0 0)
(-0.00212551 0 0)
(-0.00213951 0 0)
(-0.00215364 0 0)
(-0.00216792 0 0)
(-0.00218233 0 0)
(-0.00219687 0 0)
(-0.00221152 0 0)
(-0.00222628 0 0)
(-0.00224114 0 0)
(-0.00225609 0 0)
(-0.00227113 0 0)
(-0.00228623 0 0)
(-0.00230139 0 0)
(-0.0023166 0 0)
(-0.00233184 0 0)
(-0.00234711 0 0)
(-0.00236238 0 0)
(-0.00237765 0 0)
(-0.00239291 0 0)
(-0.00240813 0 0)
(-0.00242331 0 0)
(-0.00243842 0 0)
(-0.00245344 0 0)
(-0.00246837 0 0)
(-0.00248319 0 0)
(-0.00249787 0 0)
(-0.00251239 0 0)
(-0.00252674 0 0)
(-0.00254089 0 0)
(-0.00255482 0 0)
(-0.00256852 0 0)
(-0.00258195 0 0)
(-0.00259509 0 0)
(-0.00260792 0 0)
(-0.00262041 0 0)
(-0.00263253 0 0)
(-0.00264425 0 0)
(-0.00265554 0 0)
(-0.00266637 0 0)
(-0.0026767 0 0)
(-0.00268649 0 0)
(-0.00269568 0 0)
(-0.00270423 0 0)
(-0.00271206 0 0)
(-0.00271895 0 0)
(-0.00272492 0 0)
(-0.00273083 0 0)
(-0.00273669 0 0)
(-0.00274154 0 0)
(-0.00274517 0 0)
(-0.00274777 0 0)
(-0.00274927 0 0)
(-0.0027497 0 0)
(-0.00274901 0 0)
(-0.00274713 0 0)
(-0.00274404 0 0)
(-0.00273964 0 0)
(-0.00273389 0 0)
(-0.00272672 0 0)
(-0.00271804 0 0)
(-0.00270779 0 0)
(-0.00269588 0 0)
(-0.00268224 0 0)
(-0.00266677 0 0)
(-0.00264939 0 0)
(-0.00263001 0 0)
(-0.00260854 0 0)
(-0.00258488 0 0)
(-0.00255894 0 0)
(-0.00253062 0 0)
(-0.00249983 0 0)
(-0.00246648 0 0)
(-0.00243047 0 0)
(-0.00239171 0 0)
(-0.00235013 0 0)
(-0.00230564 0 0)
(-0.00225819 0 0)
(-0.00220772 0 0)
(-0.00215417 0 0)
(-0.00209751 0 0)
(-0.00203784 0 0)
(-0.00197541 0 0)
(-0.00191026 0 0)
(-0.00183995 0 0)
(-0.00175908 0 0)
(-0.00167983 0 0)
)
;

boundaryField
{
    fixedWall
    {
        type            fixedValue;
        value           uniform (0 0 0);
    }
    outlet
    {
        type            pressureInletOutletVelocity;
        value           uniform (-0.00167983 0 0);
    }
    defaultFaces
    {
        type            empty;
    }
}


// ************************************************************************* //
