/*--------------------------------*- C++ -*----------------------------------*\
| =========                 |                                                 |
| \\      /  F ield         | OpenFOAM: The Open Source CFD Toolbox           |
|  \\    /   O peration     | Version:  2406                                  |
|   \\  /    A nd           | Website:  www.openfoam.com                      |
|    \\/     M anipulation  |                                                 |
\*---------------------------------------------------------------------------*/
FoamFile
{
    version     2.0;
    format      ascii;
    arch        "LSB;label=32;scalar=64";
    class       volScalarField;
    location    "4.3";
    object      CO2;
}
// * * * * * * * * * * * * * * * * * * * * * * * * * * * * * * * * * * * * * //

dimensions      [0 0 0 0 0 0 0];

internalField   nonuniform List<scalar> 
1000
(
0.0709258
0.0709258
0.0709258
0.0709258
0.0709258
0.0709258
0.0709258
0.0709258
0.0709259
0.0709259
0.0709259
0.0709259
0.0709259
0.0709259
0.0709259
0.0709259
0.070926
0.070926
0.070926
0.070926
0.070926
0.070926
0.070926
0.0709261
0.0709261
0.0709261
0.0709261
0.0709261
0.0709261
0.0709262
0.0709262
0.0709262
0.0709262
0.0709262
0.0709262
0.0709262
0.0709263
0.0709263
0.0709263
0.0709263
0.0709263
0.0709263
0.0709263
0.0709263
0.0709263
0.0709264
0.0709264
0.0709264
0.0709264
0.0709264
0.0709264
0.0709264
0.0709264
0.0709264
0.0709264
0.0709264
0.0709264
0.0709264
0.0709264
0.0709264
0.0709265
0.0709265
0.0709265
0.0709265
0.0709265
0.0709265
0.0709265
0.0709265
0.0709265
0.0709265
0.0709265
0.0709265
0.0709265
0.0709265
0.0709265
0.0709265
0.0709265
0.0709265
0.0709265
0.0709265
0.0709265
0.0709265
0.0709265
0.0709265
0.0709265
0.0709265
0.0709265
0.0709265
0.0709265
0.0709265
0.0709265
0.0709265
0.0709265
0.0709265
0.0709265
0.0709265
0.0709265
0.0709265
0.0709265
0.0709265
0.0709265
0.0709265
0.0709265
0.0709265
0.0709265
0.0709265
0.0709265
0.0709265
0.0709265
0.0709265
0.0709265
0.0709265
0.0709265
0.0709265
0.0709265
0.0709265
0.0709265
0.0709265
0.0709265
0.0709265
0.0709265
0.0709265
0.0709265
0.0709265
0.0709265
0.0709265
0.0709265
0.0709265
0.0709265
0.0709265
0.0709265
0.0709265
0.0709265
0.0709265
0.0709265
0.0709265
0.0709265
0.0709265
0.0709265
0.0709265
0.0709265
0.0709265
0.0709265
0.0709265
0.0709265
0.0709265
0.0709265
0.0709265
0.0709265
0.0709265
0.0709265
0.0709265
0.0709265
0.0709265
0.0709265
0.0709265
0.0709265
0.0709265
0.0709265
0.0709265
0.0709265
0.0709265
0.0709265
0.0709265
0.0709265
0.0709265
0.0709265
0.0709265
0.0709265
0.0709265
0.0709265
0.0709264
0.0709264
0.0709264
0.0709264
0.0709264
0.0709264
0.0709264
0.0709264
0.0709264
0.0709264
0.0709264
0.0709264
0.0709264
0.0709264
0.0709264
0.0709264
0.0709264
0.0709264
0.0709264
0.0709264
0.0709264
0.0709264
0.0709264
0.0709264
0.0709264
0.0709264
0.0709264
0.0709264
0.0709264
0.0709264
0.0709264
0.0709264
0.0709264
0.0709264
0.0709264
0.0709264
0.0709264
0.0709264
0.0709264
0.0709264
0.0709264
0.0709264
0.0709264
0.0709264
0.0709264
0.0709264
0.0709264
0.0709264
0.0709264
0.0709264
0.0709264
0.0709264
0.0709264
0.0709264
0.0709264
0.0709264
0.0709264
0.0709264
0.0709264
0.0709264
0.0709264
0.0709264
0.0709264
0.0709264
0.0709264
0.0709264
0.0709264
0.0709264
0.0709264
0.0709264
0.0709264
0.0709264
0.0709264
0.0709264
0.0709264
0.0709264
0.0709264
0.0709264
0.0709264
0.0709264
0.0709264
0.0709264
0.0709264
0.0709264
0.0709264
0.0709264
0.0709264
0.0709264
0.0709264
0.0709264
0.0709264
0.0709264
0.0709264
0.0709264
0.0709264
0.0709264
0.0709264
0.0709264
0.0709264
0.0709264
0.0709263
0.0709263
0.0709263
0.0709263
0.0709263
0.0709263
0.0709263
0.0709263
0.0709263
0.0709263
0.0709263
0.0709263
0.0709263
0.0709263
0.0709263
0.0709263
0.0709263
0.0709263
0.0709263
0.0709263
0.0709263
0.0709263
0.0709263
0.0709263
0.0709263
0.0709263
0.0709263
0.0709263
0.0709263
0.0709263
0.0709263
0.0709263
0.0709263
0.0709263
0.0709263
0.0709263
0.0709263
0.0709263
0.0709263
0.0709263
0.0709263
0.0709263
0.0709263
0.0709263
0.0709263
0.0709263
0.0709263
0.0709263
0.0709263
0.0709263
0.0709263
0.0709263
0.0709263
0.0709263
0.0709263
0.0709263
0.0709263
0.0709263
0.0709263
0.0709263
0.0709263
0.0709263
0.0709263
0.0709263
0.0709263
0.0709263
0.0709263
0.0709263
0.0709262
0.0709262
0.0709262
0.0709262
0.0709262
0.0709262
0.0709262
0.0709262
0.0709262
0.0709262
0.0709262
0.0709262
0.0709262
0.0709262
0.0709262
0.0709262
0.0709262
0.0709262
0.0709262
0.0709262
0.0709262
0.0709262
0.0709262
0.0709262
0.0709262
0.0709262
0.0709262
0.0709262
0.0709262
0.0709262
0.0709262
0.0709262
0.0709262
0.0709262
0.0709262
0.0709262
0.0709262
0.0709262
0.0709262
0.0709262
0.0709262
0.0709262
0.0709262
0.0709262
0.0709262
0.0709262
0.0709262
0.0709262
0.0709262
0.0709261
0.0709261
0.0709261
0.0709261
0.0709261
0.0709261
0.0709261
0.0709261
0.0709261
0.0709261
0.0709261
0.0709261
0.0709261
0.0709261
0.0709261
0.0709261
0.0709261
0.0709261
0.0709261
0.0709261
0.0709261
0.0709261
0.0709261
0.0709261
0.0709261
0.0709261
0.0709261
0.0709261
0.0709261
0.0709261
0.0709261
0.0709261
0.0709261
0.0709261
0.0709261
0.0709261
0.070926
0.070926
0.070926
0.070926
0.070926
0.070926
0.070926
0.070926
0.070926
0.070926
0.070926
0.070926
0.070926
0.070926
0.070926
0.070926
0.070926
0.070926
0.070926
0.070926
0.070926
0.070926
0.070926
0.070926
0.070926
0.070926
0.070926
0.070926
0.0709259
0.0709259
0.0709259
0.0709259
0.0709259
0.0709259
0.0709259
0.0709259
0.0709259
0.0709259
0.0709259
0.0709259
0.0709259
0.0709259
0.0709259
0.0709259
0.0709259
0.0709259
0.0709259
0.0709259
0.0709259
0.0709259
0.0709259
0.0709258
0.0709258
0.0709258
0.0709258
0.0709258
0.0709258
0.0709258
0.0709258
0.0709258
0.0709258
0.0709258
0.0709258
0.0709258
0.0709258
0.0709258
0.0709258
0.0709258
0.0709258
0.0709257
0.0709257
0.0709257
0.0709257
0.0709257
0.0709257
0.0709257
0.0709257
0.0709257
0.0709257
0.0709257
0.0709257
0.0709257
0.0709257
0.0709257
0.0709256
0.0709256
0.0709256
0.0709256
0.0709256
0.0709256
0.0709256
0.0709256
0.0709256
0.0709256
0.0709256
0.0709256
0.0709256
0.0709256
0.0709255
0.0709255
0.0709255
0.0709255
0.0709255
0.0709255
0.0709255
0.0709255
0.0709255
0.0709255
0.0709255
0.0709254
0.0709254
0.0709254
0.0709254
0.0709254
0.0709254
0.0709254
0.0709254
0.0709254
0.0709253
0.0709253
0.0709253
0.0709253
0.0709253
0.0709253
0.0709253
0.0709253
0.0709253
0.0709252
0.0709252
0.0709252
0.0709252
0.0709252
0.0709252
0.0709252
0.0709252
0.0709251
0.0709251
0.0709251
0.0709251
0.0709251
0.0709251
0.070925
0.070925
0.070925
0.070925
0.070925
0.070925
0.0709249
0.0709249
0.0709249
0.0709249
0.0709249
0.0709249
0.0709248
0.0709248
0.0709248
0.0709248
0.0709247
0.0709247
0.0709247
0.0709247
0.0709247
0.0709246
0.0709246
0.0709246
0.0709246
0.0709245
0.0709245
0.0709245
0.0709244
0.0709244
0.0709244
0.0709244
0.0709243
0.0709243
0.0709243
0.0709242
0.0709242
0.0709242
0.0709241
0.0709241
0.0709241
0.070924
0.070924
0.0709239
0.0709239
0.0709239
0.0709238
0.0709238
0.0709237
0.0709237
0.0709236
0.0709236
0.0709235
0.0709235
0.0709234
0.0709234
0.0709233
0.0709232
0.0709232
0.0709231
0.070923
0.070923
0.0709229
0.0709228
0.0709227
0.0709226
0.0709226
0.0709225
0.0709224
0.0709223
0.0709222
0.0709221
0.070922
0.0709218
0.0709217
0.0709216
0.0709215
0.0709213
0.0709212
0.070921
0.0709208
0.0709207
0.0709205
0.0709203
0.0709201
0.0709198
0.0709196
0.0709193
0.0709191
0.0709188
0.0709184
0.0709181
0.0709177
0.0709173
0.0709169
0.0709164
0.0709159
0.0709153
0.0709146
0.0709139
0.0709131
0.0709122
0.0709112
0.07091
0.0709087
0.0709071
0.0709053
0.0709032
0.0709006
0.0708975
0.0708935
0.0708885
0.0708818
0.0708727
0.0708597
0.0708402
0.0708089
0.0707507
0.0706198
0.0702602
0.069096
0.0648278
0.0443901
0.0219088
0.0106058
0.00514433
0.00251557
0.00123972
0.0006144
0.000305588
0.000152313
7.60053e-05
3.79502e-05
1.89541e-05
9.46742e-06
4.72886e-06
2.36188e-06
1.1796e-06
5.89108e-07
2.9424e-07
1.46992e-07
7.34696e-08
3.67699e-08
1.84435e-08
9.26864e-09
4.64786e-09
2.49978e-09
1.47847e-09
1.02574e-09
6.07394e-10
3.9218e-10
2.82792e-10
2.29905e-10
2.05718e-10
1.91975e-10
1.853e-10
1.80141e-10
1.77406e-10
1.75871e-10
1.74963e-10
1.74482e-10
1.74134e-10
1.73911e-10
1.73821e-10
1.73775e-10
1.73731e-10
1.7371e-10
1.73701e-10
1.73695e-10
1.73692e-10
1.7369e-10
1.7369e-10
1.7369e-10
1.7369e-10
1.73691e-10
1.73691e-10
1.73692e-10
1.73692e-10
1.73693e-10
1.73694e-10
1.73694e-10
1.73695e-10
1.73696e-10
1.73697e-10
1.73697e-10
1.73698e-10
1.73699e-10
1.737e-10
1.737e-10
1.73701e-10
1.73702e-10
1.73703e-10
1.73703e-10
1.73704e-10
1.73705e-10
1.73706e-10
1.73706e-10
1.73707e-10
1.73708e-10
1.73709e-10
1.73709e-10
1.7371e-10
1.73711e-10
1.73711e-10
1.73712e-10
1.73713e-10
1.73714e-10
1.73715e-10
1.73715e-10
1.73716e-10
1.73717e-10
1.73717e-10
1.73718e-10
1.73719e-10
1.7372e-10
1.73721e-10
1.73721e-10
1.73722e-10
1.73722e-10
1.73723e-10
1.73724e-10
1.73725e-10
1.73725e-10
1.73726e-10
1.73727e-10
1.73728e-10
1.73728e-10
1.73729e-10
1.7373e-10
1.73731e-10
1.73731e-10
1.73732e-10
1.73733e-10
1.73733e-10
1.73734e-10
1.73735e-10
1.73735e-10
1.73736e-10
1.73737e-10
1.73738e-10
1.73738e-10
1.73739e-10
1.7374e-10
1.7374e-10
1.73741e-10
1.73742e-10
1.73743e-10
1.73743e-10
1.73744e-10
1.73745e-10
1.73745e-10
1.73747e-10
1.73747e-10
1.73748e-10
1.73749e-10
1.7375e-10
1.73751e-10
1.73752e-10
1.73752e-10
1.73753e-10
1.73754e-10
1.73755e-10
1.73756e-10
1.73756e-10
1.73757e-10
1.73758e-10
1.73758e-10
1.73759e-10
1.7376e-10
1.73761e-10
1.73762e-10
1.73762e-10
1.73763e-10
1.73764e-10
1.73765e-10
1.73765e-10
1.73766e-10
1.73767e-10
1.73768e-10
1.73768e-10
1.73769e-10
1.7377e-10
1.73771e-10
1.73771e-10
1.73772e-10
1.73772e-10
1.73773e-10
1.73774e-10
1.73775e-10
1.73775e-10
1.73776e-10
1.73777e-10
1.73777e-10
1.73778e-10
1.73779e-10
1.7378e-10
1.7378e-10
1.73781e-10
1.73782e-10
1.73783e-10
1.73783e-10
1.73784e-10
1.73785e-10
1.73786e-10
1.73787e-10
1.73788e-10
1.73788e-10
1.7379e-10
1.7379e-10
1.73791e-10
1.73792e-10
1.73792e-10
1.73793e-10
1.73794e-10
1.73795e-10
1.73795e-10
1.73796e-10
1.73797e-10
1.73798e-10
1.73799e-10
1.73799e-10
1.738e-10
1.73801e-10
1.73802e-10
1.73803e-10
1.73803e-10
1.73804e-10
1.73805e-10
1.73805e-10
1.73806e-10
1.73807e-10
1.73807e-10
1.73808e-10
1.73809e-10
1.7381e-10
1.7381e-10
1.73811e-10
1.73812e-10
1.73813e-10
1.73813e-10
1.73814e-10
1.73815e-10
1.73816e-10
1.73817e-10
1.73817e-10
1.73818e-10
1.73819e-10
1.7382e-10
1.7382e-10
1.73821e-10
1.73822e-10
1.73823e-10
1.73823e-10
1.73824e-10
1.73825e-10
1.73825e-10
1.73826e-10
1.73827e-10
1.73828e-10
1.73829e-10
1.73829e-10
1.7383e-10
1.73831e-10
1.73831e-10
1.73832e-10
1.73833e-10
1.73834e-10
1.73835e-10
1.73836e-10
1.73836e-10
1.73837e-10
1.73838e-10
1.73838e-10
1.73839e-10
1.7384e-10
1.73841e-10
1.73842e-10
1.73842e-10
1.73843e-10
1.73844e-10
1.73844e-10
1.73845e-10
1.73846e-10
1.73846e-10
1.73847e-10
1.73848e-10
1.73849e-10
1.7385e-10
1.7385e-10
1.73851e-10
1.73852e-10
1.73853e-10
1.73853e-10
1.73854e-10
1.73855e-10
1.73856e-10
1.73857e-10
1.73857e-10
1.73858e-10
1.73859e-10
1.7386e-10
1.73861e-10
1.73862e-10
1.73862e-10
1.73863e-10
1.73864e-10
1.73865e-10
1.73865e-10
1.73866e-10
1.73867e-10
1.73868e-10
1.73868e-10
1.73869e-10
1.7387e-10
1.73871e-10
1.73871e-10
1.73872e-10
1.73872e-10
1.73873e-10
1.73874e-10
1.73875e-10
1.73875e-10
1.73876e-10
1.73877e-10
1.73878e-10
1.73879e-10
1.7388e-10
1.7388e-10
1.73881e-10
1.73882e-10
1.73883e-10
1.73883e-10
1.73884e-10
1.73885e-10
1.73886e-10
)
;

boundaryField
{
    fixedWall
    {
        type            zeroGradient;
    }
    outlet
    {
        type            inletOutlet;
        inletValue      uniform 0;
        value           uniform 1.73886e-10;
    }
    defaultFaces
    {
        type            empty;
    }
}


// ************************************************************************* //
