/*--------------------------------*- C++ -*----------------------------------*\
| =========                 |                                                 |
| \\      /  F ield         | OpenFOAM: The Open Source CFD Toolbox           |
|  \\    /   O peration     | Version:  2406                                  |
|   \\  /    A nd           | Website:  www.openfoam.com                      |
|    \\/     M anipulation  |                                                 |
\*---------------------------------------------------------------------------*/
FoamFile
{
    version     2.0;
    format      ascii;
    arch        "LSB;label=32;scalar=64";
    class       volScalarField;
    location    "4.3";
    object      O2;
}
// * * * * * * * * * * * * * * * * * * * * * * * * * * * * * * * * * * * * * //

dimensions      [0 0 0 0 0 0 0];

internalField   nonuniform List<scalar> 
1000
(
1.52874e-06
1.52505e-06
1.51862e-06
1.51e-06
1.49958e-06
1.48762e-06
1.47434e-06
1.45989e-06
1.44441e-06
1.428e-06
1.41076e-06
1.39276e-06
1.37409e-06
1.3548e-06
1.33496e-06
1.31462e-06
1.29384e-06
1.27267e-06
1.25117e-06
1.22937e-06
1.20735e-06
1.18514e-06
1.1628e-06
1.14038e-06
1.11793e-06
1.0955e-06
1.07315e-06
1.05092e-06
1.02887e-06
1.00703e-06
9.85465e-07
9.64208e-07
9.43302e-07
9.22786e-07
9.02694e-07
8.83059e-07
8.63909e-07
8.45269e-07
8.27161e-07
8.09604e-07
7.92612e-07
7.76197e-07
7.60367e-07
7.45129e-07
7.30485e-07
7.16435e-07
7.02977e-07
6.90106e-07
6.77815e-07
6.66097e-07
6.54942e-07
6.44337e-07
6.34272e-07
6.24732e-07
6.15702e-07
6.07168e-07
5.99115e-07
5.91525e-07
5.84384e-07
5.77673e-07
5.71378e-07
5.65481e-07
5.59966e-07
5.54817e-07
5.50017e-07
5.45551e-07
5.41403e-07
5.37559e-07
5.34004e-07
5.30723e-07
5.27702e-07
5.24929e-07
5.2239e-07
5.20073e-07
5.17966e-07
5.16057e-07
5.14335e-07
5.12791e-07
5.11413e-07
5.10192e-07
5.09119e-07
5.08185e-07
5.07381e-07
5.06701e-07
5.06136e-07
5.05679e-07
5.05323e-07
5.05062e-07
5.04891e-07
5.04804e-07
5.04793e-07
5.04855e-07
5.04984e-07
5.05177e-07
5.0543e-07
5.05737e-07
5.06096e-07
5.06503e-07
5.06954e-07
5.07446e-07
5.07978e-07
5.08545e-07
5.09145e-07
5.09776e-07
5.10437e-07
5.11124e-07
5.11835e-07
5.1257e-07
5.13326e-07
5.14103e-07
5.14897e-07
5.15709e-07
5.16537e-07
5.17379e-07
5.18236e-07
5.19105e-07
5.19986e-07
5.20878e-07
5.21781e-07
5.22694e-07
5.23615e-07
5.24545e-07
5.25484e-07
5.26429e-07
5.27382e-07
5.28342e-07
5.29308e-07
5.3028e-07
5.31258e-07
5.32242e-07
5.3323e-07
5.34224e-07
5.35223e-07
5.36227e-07
5.37235e-07
5.38248e-07
5.39265e-07
5.40286e-07
5.41312e-07
5.42342e-07
5.43375e-07
5.44413e-07
5.45455e-07
5.46501e-07
5.47551e-07
5.48605e-07
5.49663e-07
5.50724e-07
5.51782e-07
5.52848e-07
5.53924e-07
5.55003e-07
5.56086e-07
5.57173e-07
5.58263e-07
5.59358e-07
5.60456e-07
5.61559e-07
5.62665e-07
5.63776e-07
5.64891e-07
5.6601e-07
5.67133e-07
5.6826e-07
5.69392e-07
5.70529e-07
5.71669e-07
5.72815e-07
5.73964e-07
5.75119e-07
5.76277e-07
5.77441e-07
5.78609e-07
5.79782e-07
5.80959e-07
5.82142e-07
5.83329e-07
5.84521e-07
5.85717e-07
5.86919e-07
5.88126e-07
5.89337e-07
5.90554e-07
5.91776e-07
5.93002e-07
5.94234e-07
5.95471e-07
5.96713e-07
5.9796e-07
5.99213e-07
6.00471e-07
6.01734e-07
6.03002e-07
6.04276e-07
6.05555e-07
6.06839e-07
6.08129e-07
6.09424e-07
6.10725e-07
6.12031e-07
6.13343e-07
6.14661e-07
6.15984e-07
6.17312e-07
6.18647e-07
6.19987e-07
6.21332e-07
6.22684e-07
6.24041e-07
6.25404e-07
6.26773e-07
6.28147e-07
6.29528e-07
6.30914e-07
6.32307e-07
6.33705e-07
6.35109e-07
6.3652e-07
6.37936e-07
6.39359e-07
6.40787e-07
6.42222e-07
6.43663e-07
6.45111e-07
6.46564e-07
6.48024e-07
6.4949e-07
6.50963e-07
6.52442e-07
6.53927e-07
6.55419e-07
6.56918e-07
6.58423e-07
6.59935e-07
6.61453e-07
6.62978e-07
6.6451e-07
6.66048e-07
6.67594e-07
6.69146e-07
6.70705e-07
6.72271e-07
6.73844e-07
6.75424e-07
6.77011e-07
6.78605e-07
6.80207e-07
6.81815e-07
6.83431e-07
6.85054e-07
6.86684e-07
6.88322e-07
6.89967e-07
6.9162e-07
6.9328e-07
6.94948e-07
6.96623e-07
6.98306e-07
6.99997e-07
7.01696e-07
7.03402e-07
7.05116e-07
7.06838e-07
7.08568e-07
7.10306e-07
7.12052e-07
7.13807e-07
7.15569e-07
7.1734e-07
7.19119e-07
7.20906e-07
7.22702e-07
7.24506e-07
7.26319e-07
7.2814e-07
7.29971e-07
7.31809e-07
7.33657e-07
7.35514e-07
7.3738e-07
7.39254e-07
7.41138e-07
7.43031e-07
7.44933e-07
7.46845e-07
7.48766e-07
7.50697e-07
7.52638e-07
7.54588e-07
7.56547e-07
7.58517e-07
7.60497e-07
7.62487e-07
7.64487e-07
7.66497e-07
7.68518e-07
7.70549e-07
7.72592e-07
7.74622e-07
7.76687e-07
7.78763e-07
7.80849e-07
7.82946e-07
7.85054e-07
7.87174e-07
7.89305e-07
7.91448e-07
7.93602e-07
7.95769e-07
7.97947e-07
8.00137e-07
8.02339e-07
8.04553e-07
8.0678e-07
8.09019e-07
8.1127e-07
8.13534e-07
8.15811e-07
8.181e-07
8.20402e-07
8.22718e-07
8.25046e-07
8.27387e-07
8.29742e-07
8.3211e-07
8.34492e-07
8.36887e-07
8.39296e-07
8.41718e-07
8.44155e-07
8.46605e-07
8.4907e-07
8.51548e-07
8.54041e-07
8.56548e-07
8.5907e-07
8.61606e-07
8.64157e-07
8.66722e-07
8.69303e-07
8.71898e-07
8.74508e-07
8.77134e-07
8.79775e-07
8.82431e-07
8.85103e-07
8.87791e-07
8.90494e-07
8.93213e-07
8.95948e-07
8.987e-07
9.01467e-07
9.04252e-07
9.07052e-07
9.0987e-07
9.12704e-07
9.15556e-07
9.18424e-07
9.21311e-07
9.24214e-07
9.27136e-07
9.30075e-07
9.33032e-07
9.36008e-07
9.39003e-07
9.42016e-07
9.45047e-07
9.48098e-07
9.51169e-07
9.54259e-07
9.57368e-07
9.60498e-07
9.63648e-07
9.66818e-07
9.70009e-07
9.73221e-07
9.76455e-07
9.79709e-07
9.82986e-07
9.86284e-07
9.89605e-07
9.92948e-07
9.96314e-07
9.99703e-07
1.00312e-06
1.00655e-06
1.01001e-06
1.0135e-06
1.01701e-06
1.02054e-06
1.0241e-06
1.02768e-06
1.03129e-06
1.03493e-06
1.03859e-06
1.04228e-06
1.046e-06
1.04974e-06
1.05352e-06
1.05732e-06
1.06114e-06
1.06495e-06
1.06884e-06
1.07276e-06
1.0767e-06
1.08068e-06
1.08468e-06
1.08872e-06
1.09279e-06
1.09689e-06
1.10102e-06
1.10519e-06
1.10939e-06
1.11362e-06
1.11788e-06
1.12218e-06
1.12651e-06
1.13088e-06
1.13528e-06
1.13972e-06
1.14419e-06
1.1487e-06
1.15325e-06
1.15783e-06
1.16244e-06
1.1671e-06
1.17179e-06
1.17652e-06
1.18128e-06
1.18609e-06
1.19093e-06
1.19581e-06
1.20073e-06
1.20569e-06
1.21069e-06
1.21573e-06
1.22081e-06
1.22592e-06
1.23108e-06
1.23628e-06
1.24153e-06
1.24681e-06
1.25214e-06
1.2575e-06
1.26292e-06
1.26838e-06
1.27386e-06
1.27935e-06
1.28494e-06
1.29059e-06
1.29627e-06
1.302e-06
1.30779e-06
1.31362e-06
1.3195e-06
1.32543e-06
1.33141e-06
1.33745e-06
1.34354e-06
1.34969e-06
1.35589e-06
1.36214e-06
1.36846e-06
1.37483e-06
1.38126e-06
1.38776e-06
1.39431e-06
1.40093e-06
1.40761e-06
1.41436e-06
1.42117e-06
1.42805e-06
1.435e-06
1.44202e-06
1.44911e-06
1.45627e-06
1.46351e-06
1.47082e-06
1.4782e-06
1.48566e-06
1.4932e-06
1.50082e-06
1.50852e-06
1.5163e-06
1.52416e-06
1.53201e-06
1.54005e-06
1.54818e-06
1.55639e-06
1.56468e-06
1.57307e-06
1.58154e-06
1.59011e-06
1.59878e-06
1.60753e-06
1.61638e-06
1.62533e-06
1.63438e-06
1.64352e-06
1.65277e-06
1.66212e-06
1.67157e-06
1.68113e-06
1.69079e-06
1.70057e-06
1.71045e-06
1.72045e-06
1.73056e-06
1.74079e-06
1.75114e-06
1.76161e-06
1.77221e-06
1.78293e-06
1.79378e-06
1.80476e-06
1.81588e-06
1.82714e-06
1.83854e-06
1.85009e-06
1.86178e-06
1.87363e-06
1.88563e-06
1.89778e-06
1.90993e-06
1.9224e-06
1.93501e-06
1.94779e-06
1.96074e-06
1.97386e-06
1.98716e-06
2.00063e-06
2.01429e-06
2.02813e-06
2.04215e-06
2.05637e-06
2.07078e-06
2.0854e-06
2.10021e-06
2.11524e-06
2.13047e-06
2.14593e-06
2.1616e-06
2.17751e-06
2.19364e-06
2.21001e-06
2.22663e-06
2.24349e-06
2.26061e-06
2.278e-06
2.29565e-06
2.31357e-06
2.33178e-06
2.35029e-06
2.36909e-06
2.38817e-06
2.40734e-06
2.42707e-06
2.44712e-06
2.4675e-06
2.48823e-06
2.50932e-06
2.53077e-06
2.5526e-06
2.57481e-06
2.59742e-06
2.62043e-06
2.64386e-06
2.66771e-06
2.692e-06
2.71675e-06
2.74196e-06
2.76765e-06
2.79383e-06
2.82052e-06
2.84772e-06
2.87547e-06
2.90376e-06
2.93262e-06
2.96206e-06
2.9921e-06
3.02276e-06
3.05406e-06
3.08601e-06
3.11862e-06
3.15193e-06
3.18595e-06
3.2207e-06
3.2562e-06
3.29247e-06
3.32954e-06
3.36743e-06
3.40618e-06
3.44564e-06
3.48563e-06
3.52708e-06
3.56944e-06
3.61277e-06
3.65713e-06
3.70256e-06
3.74909e-06
3.79677e-06
3.84565e-06
3.89577e-06
3.94719e-06
3.99995e-06
4.05413e-06
4.10976e-06
4.16693e-06
4.22569e-06
4.28611e-06
4.34827e-06
4.41224e-06
4.47809e-06
4.54592e-06
4.6158e-06
4.68783e-06
4.76211e-06
4.83874e-06
4.91782e-06
4.99947e-06
5.08382e-06
5.171e-06
5.26115e-06
5.35441e-06
5.45097e-06
5.55099e-06
5.65467e-06
5.76221e-06
5.87384e-06
5.98983e-06
6.11045e-06
6.23606e-06
6.36625e-06
6.50076e-06
6.64296e-06
6.79132e-06
6.94644e-06
7.10884e-06
7.27908e-06
7.45775e-06
7.64546e-06
7.84292e-06
8.05085e-06
8.27007e-06
8.50145e-06
8.74592e-06
9.00452e-06
9.2784e-06
9.56882e-06
9.87721e-06
1.02052e-05
1.05547e-05
1.0928e-05
1.13274e-05
1.17562e-05
1.22177e-05
1.27161e-05
1.32562e-05
1.38434e-05
1.44844e-05
1.51864e-05
1.59581e-05
1.68097e-05
1.77532e-05
1.88029e-05
1.99762e-05
2.12946e-05
2.27847e-05
2.44805e-05
2.64261e-05
2.86805e-05
3.13151e-05
3.44102e-05
3.81714e-05
4.27109e-05
4.84405e-05
5.57838e-05
6.55018e-05
7.88032e-05
9.77066e-05
0.000125931
0.000171581
0.000256198
0.000446525
0.000969371
0.00266233
0.008869
0.0385886
0.0712802
0.0877164
0.0956583
0.099481
0.101336
0.102246
0.102695
0.102918
0.103028
0.103084
0.103111
0.103125
0.103132
0.103136
0.103137
0.103138
0.103139
0.103139
0.103139
0.103139
0.103139
0.103139
0.103139
0.103139
0.103139
0.103139
0.103139
0.103139
0.103139
0.103139
0.103139
0.103139
0.103139
0.103139
0.103139
0.103139
0.103139
0.103139
0.103139
0.103139
0.103139
0.103139
0.103139
0.103139
0.103139
0.103139
0.103139
0.103139
0.103139
0.103139
0.103139
0.103139
0.103139
0.103139
0.103139
0.103139
0.103139
0.103139
0.103139
0.103139
0.103139
0.103139
0.103139
0.103139
0.103139
0.103139
0.103139
0.103139
0.103139
0.103139
0.103139
0.103139
0.103139
0.103139
0.103139
0.103139
0.103139
0.103139
0.103139
0.103139
0.103139
0.103139
0.103139
0.103139
0.103139
0.103139
0.103139
0.103139
0.103139
0.103139
0.103139
0.103139
0.103139
0.103139
0.103139
0.103139
0.103139
0.103139
0.103139
0.103139
0.103139
0.103139
0.103139
0.103139
0.103139
0.103139
0.103139
0.103139
0.103139
0.103139
0.103139
0.103139
0.103139
0.103139
0.103139
0.103139
0.103139
0.103139
0.103139
0.103139
0.103139
0.103139
0.103139
0.103139
0.103139
0.103139
0.103139
0.103139
0.103139
0.103139
0.103139
0.103139
0.103139
0.103139
0.103139
0.103139
0.103139
0.103139
0.103139
0.103139
0.103139
0.103139
0.103139
0.103139
0.103139
0.103139
0.103139
0.103139
0.103139
0.103139
0.103139
0.103139
0.103139
0.103139
0.103139
0.103139
0.103139
0.103139
0.103139
0.103139
0.103139
0.103139
0.103139
0.103139
0.103139
0.103139
0.103139
0.103139
0.103139
0.103139
0.103139
0.103139
0.103139
0.103139
0.103139
0.103139
0.103139
0.103139
0.103139
0.103139
0.103139
0.103139
0.103139
0.103139
0.103139
0.103139
0.103139
0.103139
0.103139
0.103139
0.103139
0.103139
0.103139
0.103139
0.103139
0.103139
0.103139
0.103139
0.103139
0.103139
0.103139
0.103139
0.103139
0.103139
0.103139
0.103139
0.103139
0.103139
0.103139
0.103139
0.103139
0.103139
0.103139
0.103139
0.103139
0.103139
0.103139
0.103139
0.103139
0.103139
0.103139
0.103139
0.103139
0.103139
0.103139
0.103139
0.103139
0.103139
0.103139
0.103139
0.103139
0.103139
0.103139
0.103139
0.103139
0.103139
0.103139
0.103139
0.103139
0.103139
0.103139
0.103139
0.103139
0.103139
0.103139
0.103139
0.103139
0.103139
0.103139
0.103139
0.103139
0.103139
0.103139
0.103139
0.103139
0.103139
0.103139
0.103139
0.103139
0.103139
0.103139
0.103139
0.103139
0.103139
0.103139
0.103139
0.103139
0.103139
0.103139
0.103139
0.103139
0.103139
0.103139
0.103139
0.103139
0.103139
0.103139
0.103139
0.103139
0.103139
0.103139
0.103139
0.103139
0.103139
0.103139
0.103139
0.103139
0.103139
0.103139
0.103139
0.103139
0.103139
0.103139
0.103139
0.103139
0.103139
0.103139
0.103139
0.103139
0.103139
0.103139
0.103139
0.103139
0.103139
0.103139
0.103139
0.103139
0.103139
0.103139
0.103139
0.103139
0.103139
)
;

boundaryField
{
    fixedWall
    {
        type            zeroGradient;
    }
    outlet
    {
        type            inletOutlet;
        inletValue      uniform 0;
        value           uniform 0.103139;
    }
    defaultFaces
    {
        type            empty;
    }
}


// ************************************************************************* //
