/*--------------------------------*- C++ -*----------------------------------*\
| =========                 |                                                 |
| \\      /  F ield         | OpenFOAM: The Open Source CFD Toolbox           |
|  \\    /   O peration     | Version:  2406                                  |
|   \\  /    A nd           | Website:  www.openfoam.com                      |
|    \\/     M anipulation  |                                                 |
\*---------------------------------------------------------------------------*/
FoamFile
{
    version     2.0;
    format      ascii;
    arch        "LSB;label=32;scalar=64";
    class       surfaceScalarField;
    location    "4.3";
    object      phi;
}
// * * * * * * * * * * * * * * * * * * * * * * * * * * * * * * * * * * * * * //

dimensions      [1 0 -1 0 0 0 0];

oriented        oriented;

internalField   nonuniform List<scalar> 
999
(
-2.805e-08
-1.2888e-07
-2.6642e-07
-4.22851e-07
-5.88729e-07
-7.5873e-07
-9.29729e-07
-1.09983e-06
-1.26787e-06
-1.43313e-06
-1.59515e-06
-1.75367e-06
-1.90854e-06
-2.05968e-06
-2.20707e-06
-2.3507e-06
-2.49062e-06
-2.62686e-06
-2.75949e-06
-2.88855e-06
-3.0141e-06
-3.13623e-06
-3.25497e-06
-3.37041e-06
-3.48259e-06
-3.59159e-06
-3.69745e-06
-3.80025e-06
-3.90003e-06
-3.99684e-06
-4.09075e-06
-4.1818e-06
-4.27005e-06
-4.35554e-06
-4.43832e-06
-4.51843e-06
-4.59594e-06
-4.67087e-06
-4.74328e-06
-4.81322e-06
-4.88071e-06
-4.94582e-06
-5.00857e-06
-5.06902e-06
-5.1272e-06
-5.18316e-06
-5.23694e-06
-5.28857e-06
-5.33811e-06
-5.3856e-06
-5.43107e-06
-5.47456e-06
-5.51612e-06
-5.55579e-06
-5.59361e-06
-5.62961e-06
-5.66385e-06
-5.69636e-06
-5.72718e-06
-5.75635e-06
-5.78392e-06
-5.80992e-06
-5.83439e-06
-5.85738e-06
-5.87892e-06
-5.89905e-06
-5.91782e-06
-5.93525e-06
-5.9514e-06
-5.9663e-06
-5.97999e-06
-5.9925e-06
-6.00387e-06
-6.01414e-06
-6.02335e-06
-6.03154e-06
-6.03873e-06
-6.04496e-06
-6.05027e-06
-6.0547e-06
-6.05827e-06
-6.06101e-06
-6.06297e-06
-6.06416e-06
-6.06462e-06
-6.06438e-06
-6.06346e-06
-6.06186e-06
-6.05964e-06
-6.05671e-06
-6.0536e-06
-6.04987e-06
-6.04557e-06
-6.04076e-06
-6.0355e-06
-6.02979e-06
-6.02367e-06
-6.01715e-06
-6.01026e-06
-6.00302e-06
-5.99544e-06
-5.98754e-06
-5.97933e-06
-5.97085e-06
-5.96209e-06
-5.95309e-06
-5.94384e-06
-5.93437e-06
-5.92469e-06
-5.91481e-06
-5.90474e-06
-5.8945e-06
-5.8841e-06
-5.87354e-06
-5.86284e-06
-5.852e-06
-5.84104e-06
-5.82996e-06
-5.81878e-06
-5.80749e-06
-5.79611e-06
-5.78464e-06
-5.77308e-06
-5.76146e-06
-5.74976e-06
-5.738e-06
-5.72617e-06
-5.71429e-06
-5.70236e-06
-5.69039e-06
-5.67837e-06
-5.6663e-06
-5.65421e-06
-5.64207e-06
-5.62991e-06
-5.61772e-06
-5.6055e-06
-5.59326e-06
-5.58099e-06
-5.56871e-06
-5.55641e-06
-5.54409e-06
-5.53175e-06
-5.5194e-06
-5.50704e-06
-5.49467e-06
-5.48229e-06
-5.46989e-06
-5.45749e-06
-5.44508e-06
-5.43267e-06
-5.42025e-06
-5.40782e-06
-5.39538e-06
-5.38295e-06
-5.3705e-06
-5.35806e-06
-5.34561e-06
-5.33315e-06
-5.3207e-06
-5.30824e-06
-5.29578e-06
-5.28331e-06
-5.27085e-06
-5.25838e-06
-5.24591e-06
-5.23344e-06
-5.22096e-06
-5.20849e-06
-5.19601e-06
-5.18354e-06
-5.17106e-06
-5.15858e-06
-5.1461e-06
-5.13361e-06
-5.12113e-06
-5.10864e-06
-5.09615e-06
-5.08367e-06
-5.07118e-06
-5.05868e-06
-5.04619e-06
-5.0337e-06
-5.0212e-06
-5.0087e-06
-4.99621e-06
-4.9837e-06
-4.9712e-06
-4.9587e-06
-4.94619e-06
-4.93369e-06
-4.92118e-06
-4.90866e-06
-4.89615e-06
-4.88364e-06
-4.87112e-06
-4.8586e-06
-4.84608e-06
-4.83356e-06
-4.82103e-06
-4.80851e-06
-4.79598e-06
-4.78345e-06
-4.77091e-06
-4.75838e-06
-4.74584e-06
-4.7333e-06
-4.72076e-06
-4.70821e-06
-4.69567e-06
-4.68312e-06
-4.67057e-06
-4.65801e-06
-4.64545e-06
-4.6329e-06
-4.62033e-06
-4.60777e-06
-4.5952e-06
-4.58263e-06
-4.57006e-06
-4.55749e-06
-4.54491e-06
-4.53233e-06
-4.51975e-06
-4.50716e-06
-4.49458e-06
-4.48199e-06
-4.46939e-06
-4.4568e-06
-4.4442e-06
-4.43159e-06
-4.41899e-06
-4.40638e-06
-4.39377e-06
-4.38116e-06
-4.36855e-06
-4.35593e-06
-4.34331e-06
-4.33068e-06
-4.31806e-06
-4.30543e-06
-4.29279e-06
-4.28016e-06
-4.26752e-06
-4.25488e-06
-4.24223e-06
-4.22959e-06
-4.21693e-06
-4.20428e-06
-4.19162e-06
-4.17896e-06
-4.1663e-06
-4.15364e-06
-4.14097e-06
-4.12829e-06
-4.11562e-06
-4.10294e-06
-4.09026e-06
-4.07757e-06
-4.06489e-06
-4.0522e-06
-4.0395e-06
-4.02681e-06
-4.01411e-06
-4.0014e-06
-3.9887e-06
-3.97599e-06
-3.96328e-06
-3.95056e-06
-3.93784e-06
-3.92512e-06
-3.9124e-06
-3.89967e-06
-3.88694e-06
-3.87421e-06
-3.86147e-06
-3.84874e-06
-3.83599e-06
-3.82325e-06
-3.8105e-06
-3.79775e-06
-3.785e-06
-3.77224e-06
-3.75948e-06
-3.74672e-06
-3.73395e-06
-3.72119e-06
-3.70842e-06
-3.69564e-06
-3.68287e-06
-3.67009e-06
-3.65731e-06
-3.64452e-06
-3.63174e-06
-3.61895e-06
-3.60616e-06
-3.59336e-06
-3.58057e-06
-3.56776e-06
-3.55496e-06
-3.54216e-06
-3.52935e-06
-3.51654e-06
-3.50372e-06
-3.49091e-06
-3.47809e-06
-3.46527e-06
-3.45244e-06
-3.43961e-06
-3.42678e-06
-3.41395e-06
-3.40111e-06
-3.38827e-06
-3.37543e-06
-3.36259e-06
-3.34974e-06
-3.33689e-06
-3.32403e-06
-3.31118e-06
-3.29832e-06
-3.28545e-06
-3.27259e-06
-3.25972e-06
-3.24684e-06
-3.23397e-06
-3.22109e-06
-3.20821e-06
-3.19532e-06
-3.18243e-06
-3.16954e-06
-3.15664e-06
-3.14374e-06
-3.13084e-06
-3.11793e-06
-3.10502e-06
-3.09211e-06
-3.07919e-06
-3.06628e-06
-3.05335e-06
-3.04042e-06
-3.02749e-06
-3.01456e-06
-3.00162e-06
-2.98868e-06
-2.97574e-06
-2.96279e-06
-2.94984e-06
-2.93689e-06
-2.92393e-06
-2.91097e-06
-2.898e-06
-2.88503e-06
-2.87206e-06
-2.85909e-06
-2.84611e-06
-2.83313e-06
-2.82015e-06
-2.80716e-06
-2.79417e-06
-2.78118e-06
-2.76818e-06
-2.75518e-06
-2.74218e-06
-2.72918e-06
-2.71617e-06
-2.70316e-06
-2.69014e-06
-2.67713e-06
-2.66411e-06
-2.65109e-06
-2.63807e-06
-2.62504e-06
-2.61201e-06
-2.59898e-06
-2.58595e-06
-2.57291e-06
-2.55988e-06
-2.54684e-06
-2.5338e-06
-2.52075e-06
-2.50771e-06
-2.49466e-06
-2.48161e-06
-2.46856e-06
-2.4555e-06
-2.44245e-06
-2.42939e-06
-2.41633e-06
-2.40327e-06
-2.39021e-06
-2.37714e-06
-2.36408e-06
-2.35101e-06
-2.33794e-06
-2.32487e-06
-2.31179e-06
-2.29872e-06
-2.28564e-06
-2.27256e-06
-2.25948e-06
-2.2464e-06
-2.23331e-06
-2.22022e-06
-2.20713e-06
-2.19404e-06
-2.18094e-06
-2.16785e-06
-2.15474e-06
-2.14164e-06
-2.12853e-06
-2.11542e-06
-2.1023e-06
-2.08918e-06
-2.07606e-06
-2.06293e-06
-2.04979e-06
-2.03666e-06
-2.02351e-06
-2.01036e-06
-1.99721e-06
-1.98404e-06
-1.97088e-06
-1.9577e-06
-1.94452e-06
-1.93133e-06
-1.91813e-06
-1.90493e-06
-1.89172e-06
-1.8785e-06
-1.86527e-06
-1.85204e-06
-1.8388e-06
-1.82554e-06
-1.81229e-06
-1.79902e-06
-1.78574e-06
-1.77246e-06
-1.75917e-06
-1.74587e-06
-1.73257e-06
-1.71925e-06
-1.70593e-06
-1.6926e-06
-1.67927e-06
-1.66593e-06
-1.65258e-06
-1.63923e-06
-1.62587e-06
-1.6125e-06
-1.59914e-06
-1.58576e-06
-1.57239e-06
-1.55901e-06
-1.54562e-06
-1.53224e-06
-1.51885e-06
-1.50546e-06
-1.49207e-06
-1.47867e-06
-1.46528e-06
-1.45188e-06
-1.43849e-06
-1.42509e-06
-1.4117e-06
-1.3983e-06
-1.3849e-06
-1.37151e-06
-1.35811e-06
-1.34472e-06
-1.33132e-06
-1.31793e-06
-1.30453e-06
-1.29114e-06
-1.27774e-06
-1.26434e-06
-1.25095e-06
-1.23755e-06
-1.22415e-06
-1.21074e-06
-1.19734e-06
-1.18393e-06
-1.17052e-06
-1.1571e-06
-1.14368e-06
-1.13026e-06
-1.11683e-06
-1.1034e-06
-1.08996e-06
-1.07651e-06
-1.06305e-06
-1.04959e-06
-1.03612e-06
-1.02265e-06
-1.00917e-06
-9.95676e-07
-9.82178e-07
-9.68671e-07
-9.55157e-07
-9.41635e-07
-9.28106e-07
-9.14569e-07
-9.01024e-07
-8.87472e-07
-8.73913e-07
-8.60348e-07
-8.46776e-07
-8.33199e-07
-8.19615e-07
-8.06026e-07
-7.92431e-07
-7.78832e-07
-7.65228e-07
-7.51619e-07
-7.38006e-07
-7.24388e-07
-7.10765e-07
-6.97137e-07
-6.83505e-07
-6.69869e-07
-6.56227e-07
-6.42582e-07
-6.28929e-07
-6.15273e-07
-6.01611e-07
-5.87941e-07
-5.74266e-07
-5.60585e-07
-5.46896e-07
-5.33202e-07
-5.195e-07
-5.05791e-07
-4.92076e-07
-4.78355e-07
-4.64627e-07
-4.50891e-07
-4.37151e-07
-4.23403e-07
-4.09652e-07
-3.95895e-07
-3.82134e-07
-3.6837e-07
-3.54603e-07
-3.40833e-07
-3.27061e-07
-3.13288e-07
-2.99516e-07
-2.85742e-07
-2.71969e-07
-2.58197e-07
-2.44427e-07
-2.30657e-07
-2.16888e-07
-2.03122e-07
-1.89356e-07
-1.7559e-07
-1.61827e-07
-1.48063e-07
-1.343e-07
-1.20536e-07
-1.06772e-07
-9.30055e-08
-7.92375e-08
-6.54666e-08
-5.16921e-08
-3.79131e-08
-2.41292e-08
-1.03397e-08
3.45631e-09
1.72582e-08
3.10689e-08
4.48875e-08
5.87165e-08
7.25561e-08
8.64066e-08
1.0027e-07
1.14147e-07
1.28039e-07
1.41947e-07
1.55872e-07
1.69815e-07
1.83777e-07
1.97761e-07
2.11768e-07
2.25797e-07
2.39851e-07
2.53931e-07
2.68036e-07
2.82166e-07
2.96323e-07
3.10505e-07
3.24713e-07
3.38944e-07
3.53199e-07
3.67475e-07
3.81768e-07
3.96079e-07
4.10402e-07
4.24736e-07
4.39077e-07
4.53423e-07
4.67769e-07
4.82112e-07
4.96451e-07
5.10782e-07
5.25102e-07
5.3941e-07
5.53705e-07
5.67986e-07
5.82253e-07
5.96509e-07
6.10753e-07
6.24988e-07
6.39217e-07
6.53442e-07
6.67668e-07
6.81898e-07
6.96134e-07
7.10381e-07
7.24641e-07
7.38916e-07
7.53208e-07
7.67517e-07
7.81844e-07
7.96186e-07
8.10541e-07
8.24908e-07
8.39281e-07
8.53656e-07
8.68027e-07
8.8239e-07
8.96737e-07
9.11065e-07
9.25366e-07
9.39635e-07
9.53868e-07
9.68061e-07
9.82212e-07
9.96321e-07
1.01039e-06
1.02443e-06
1.03845e-06
1.05246e-06
1.06649e-06
1.08056e-06
1.09469e-06
1.10893e-06
1.1233e-06
1.13785e-06
1.15259e-06
1.16756e-06
1.18276e-06
1.19821e-06
1.21389e-06
1.22977e-06
1.24583e-06
1.26201e-06
1.27826e-06
1.29454e-06
1.3108e-06
1.32703e-06
1.34324e-06
1.35946e-06
1.37578e-06
1.39234e-06
1.40928e-06
1.42678e-06
1.44503e-06
1.46422e-06
1.4845e-06
1.50602e-06
1.52892e-06
1.55332e-06
1.57933e-06
1.60709e-06
1.63663e-06
1.66792e-06
1.70093e-06
1.73647e-06
1.77861e-06
1.83957e-06
1.94594e-06
2.13908e-06
2.45001e-06
2.81072e-06
2.90679e-06
2.37582e-06
6.78961e-06
0.000185459
0.000406857
0.000614888
0.000772742
0.000875971
0.00093761
0.000972582
0.000991892
0.00100241
0.0010081
0.00101118
0.00101286
0.00101377
0.00101429
0.00101458
0.00101476
0.00101488
0.00101496
0.00101503
0.00101508
0.00101513
0.00101518
0.00101523
0.00101527
0.00101532
0.00101536
0.00101541
0.00101545
0.00101549
0.00101554
0.00101558
0.00101562
0.00101567
0.00101571
0.00101575
0.00101579
0.00101584
0.00101588
0.00101592
0.00101596
0.001016
0.00101605
0.00101609
0.00101613
0.00101617
0.00101621
0.00101625
0.00101629
0.00101633
0.00101637
0.00101641
0.00101645
0.00101649
0.00101653
0.00101657
0.00101661
0.00101665
0.00101669
0.00101673
0.00101677
0.0010168
0.00101684
0.00101688
0.00101692
0.00101696
0.00101699
0.00101703
0.00101707
0.00101711
0.00101714
0.00101718
0.00101722
0.00101725
0.00101729
0.00101733
0.00101736
0.0010174
0.00101743
0.00101747
0.00101751
0.00101754
0.00101758
0.00101761
0.00101765
0.00101768
0.00101772
0.00101775
0.00101778
0.00101782
0.00101785
0.00101789
0.00101792
0.00101795
0.00101799
0.00101802
0.00101805
0.00101808
0.00101812
0.00101815
0.00101818
0.00101821
0.00101825
0.00101828
0.00101831
0.00101834
0.00101837
0.0010184
0.00101844
0.00101847
0.0010185
0.00101853
0.00101856
0.00101859
0.00101862
0.00101865
0.00101868
0.00101871
0.00101874
0.00101877
0.0010188
0.00101883
0.00101885
0.00101888
0.00101891
0.00101894
0.00101897
0.001019
0.00101902
0.00101905
0.00101908
0.00101911
0.00101913
0.00101916
0.00101919
0.00101922
0.00101924
0.00101927
0.0010193
0.00101932
0.00101935
0.00101937
0.0010194
0.00101942
0.00101945
0.00101948
0.0010195
0.00101953
0.00101955
0.00101958
0.0010196
0.00101962
0.00101965
0.00101967
0.0010197
0.00101972
0.00101974
0.00101977
0.00101979
0.00101981
0.00101984
0.00101986
0.00101988
0.00101991
0.00101993
0.00101995
0.00101997
0.00101999
0.00102002
0.00102004
0.00102006
0.00102008
0.0010201
0.00102012
0.00102014
0.00102016
0.00102018
0.0010202
0.00102023
0.00102025
0.00102027
0.00102029
0.0010203
0.00102032
0.00102034
0.00102036
0.00102038
0.0010204
0.00102042
0.00102044
0.00102046
0.00102047
0.00102049
0.00102051
0.00102053
0.00102055
0.00102056
0.00102058
0.0010206
0.00102062
0.00102063
0.00102065
0.00102067
0.00102068
0.0010207
0.00102071
0.00102073
0.00102075
0.00102076
0.00102078
0.00102079
0.00102081
0.00102082
0.00102084
0.00102085
0.00102087
0.00102088
0.0010209
0.00102091
0.00102092
0.00102094
0.00102095
0.00102097
0.00102098
0.00102099
0.00102101
0.00102102
0.00102103
0.00102104
0.00102106
0.00102107
0.00102108
0.00102109
0.00102111
0.00102112
0.00102113
0.00102114
0.00102115
0.00102116
0.00102117
0.00102118
0.0010212
0.00102121
0.00102122
0.00102123
0.00102124
0.00102125
0.00102126
0.00102127
0.00102128
0.00102128
0.00102129
0.0010213
0.00102131
0.00102132
0.00102133
0.00102134
0.00102135
0.00102135
0.00102136
0.00102137
0.00102138
0.00102139
0.00102139
0.0010214
0.00102141
0.00102141
0.00102142
0.00102143
0.00102143
0.00102144
0.00102145
0.00102145
0.00102146
0.00102146
0.00102147
0.00102148
0.00102148
0.00102149
0.00102149
0.0010215
0.0010215
0.0010215
0.00102151
0.00102151
0.00102152
0.00102152
0.00102153
0.00102153
0.00102153
0.00102154
0.00102154
0.00102154
0.00102154
0.00102155
0.00102155
0.00102155
0.00102155
0.00102156
0.00102156
0.00102156
0.00102156
0.00102156
0.00102157
0.00102157
0.00102157
0.00102157
0.00102157
0.00102157
0.00102157
0.00102157
0.00102157
0.00102157
)
;

boundaryField
{
    fixedWall
    {
        type            calculated;
        value           uniform 0;
    }
    outlet
    {
        type            calculated;
        value           uniform 0.00102157;
    }
    defaultFaces
    {
        type            empty;
    }
}


// ************************************************************************* //
