/*--------------------------------*- C++ -*----------------------------------*\
| =========                 |                                                 |
| \\      /  F ield         | OpenFOAM: The Open Source CFD Toolbox           |
|  \\    /   O peration     | Version:  2406                                  |
|   \\  /    A nd           | Website:  www.openfoam.com                      |
|    \\/     M anipulation  |                                                 |
\*---------------------------------------------------------------------------*/
FoamFile
{
    version     2.0;
    format      ascii;
    arch        "LSB;label=32;scalar=64";
    class       volScalarField;
    location    "4.3";
    object      T;
}
// * * * * * * * * * * * * * * * * * * * * * * * * * * * * * * * * * * * * * //

dimensions      [0 0 0 1 0 0 0];

internalField   nonuniform List<scalar> 
1000
(
313.228
348.913
380.796
409.698
436.173
460.618
483.33
504.537
524.42
543.125
560.77
577.457
593.269
608.276
622.542
636.12
649.056
661.393
673.167
684.412
695.157
705.429
715.253
724.651
733.645
742.253
750.493
758.381
765.933
773.164
780.086
786.712
793.056
799.127
804.937
810.496
815.815
820.901
825.765
830.415
834.859
839.105
843.16
847.033
850.73
854.257
857.622
860.83
863.888
866.801
869.576
872.218
874.732
877.123
879.396
881.557
883.609
885.557
887.406
889.16
890.822
892.397
893.889
895.301
896.637
897.9
899.094
900.221
901.285
902.289
903.235
904.127
904.967
905.757
906.5
907.199
907.855
908.471
909.049
909.591
910.099
910.575
911.019
911.435
911.824
912.187
912.526
912.841
913.135
913.407
913.661
913.898
914.118
914.323
914.512
914.688
914.851
915.001
915.14
915.269
915.387
915.497
915.597
915.69
915.775
915.853
915.925
915.991
916.051
916.107
916.157
916.203
916.245
916.283
916.318
916.35
916.378
916.404
916.428
916.449
916.468
916.485
916.501
916.515
916.527
916.539
916.549
916.558
916.566
916.573
916.579
916.584
916.589
916.593
916.597
916.6
916.603
916.605
916.607
916.609
916.61
916.612
916.613
916.613
916.614
916.615
916.615
916.615
916.615
916.615
916.615
916.615
916.615
916.614
916.614
916.614
916.613
916.613
916.613
916.612
916.612
916.611
916.611
916.61
916.609
916.609
916.608
916.608
916.607
916.606
916.606
916.605
916.604
916.603
916.603
916.602
916.601
916.6
916.599
916.599
916.598
916.597
916.596
916.595
916.594
916.593
916.592
916.591
916.59
916.589
916.588
916.587
916.586
916.585
916.584
916.583
916.581
916.58
916.579
916.578
916.577
916.575
916.574
916.573
916.571
916.57
916.569
916.567
916.566
916.565
916.563
916.562
916.56
916.559
916.558
916.556
916.555
916.553
916.552
916.55
916.549
916.548
916.546
916.545
916.543
916.542
916.54
916.539
916.537
916.536
916.534
916.533
916.532
916.53
916.529
916.527
916.526
916.524
916.523
916.522
916.52
916.519
916.518
916.516
916.515
916.514
916.512
916.511
916.51
916.509
916.507
916.506
916.505
916.504
916.503
916.502
916.501
916.499
916.498
916.497
916.496
916.495
916.494
916.494
916.493
916.492
916.491
916.49
916.489
916.488
916.488
916.487
916.486
916.486
916.485
916.484
916.484
916.483
916.483
916.482
916.482
916.481
916.481
916.481
916.48
916.48
916.48
916.479
916.479
916.479
916.479
916.479
916.478
916.478
916.478
916.478
916.478
916.478
916.478
916.478
916.478
916.478
916.478
916.478
916.478
916.478
916.478
916.479
916.479
916.479
916.479
916.479
916.48
916.48
916.48
916.48
916.481
916.481
916.481
916.481
916.482
916.482
916.482
916.483
916.483
916.484
916.484
916.484
916.485
916.485
916.486
916.486
916.487
916.487
916.488
916.488
916.489
916.489
916.49
916.49
916.491
916.491
916.492
916.493
916.493
916.494
916.495
916.495
916.496
916.497
916.498
916.498
916.499
916.5
916.501
916.502
916.502
916.503
916.504
916.505
916.506
916.507
916.508
916.508
916.509
916.51
916.511
916.512
916.513
916.514
916.515
916.516
916.517
916.518
916.519
916.519
916.52
916.521
916.522
916.523
916.524
916.525
916.525
916.526
916.527
916.528
916.528
916.529
916.53
916.53
916.531
916.531
916.532
916.532
916.533
916.533
916.533
916.534
916.534
916.534
916.534
916.534
916.534
916.534
916.534
916.534
916.533
916.533
916.533
916.532
916.532
916.531
916.531
916.53
916.529
916.528
916.528
916.527
916.526
916.525
916.524
916.523
916.522
916.521
916.52
916.519
916.518
916.517
916.515
916.514
916.513
916.512
916.511
916.51
916.509
916.509
916.508
916.507
916.506
916.506
916.505
916.504
916.504
916.504
916.503
916.503
916.503
916.503
916.503
916.503
916.503
916.504
916.504
916.504
916.505
916.506
916.506
916.507
916.508
916.509
916.509
916.51
916.511
916.512
916.513
916.514
916.515
916.516
916.517
916.518
916.519
916.52
916.521
916.521
916.522
916.523
916.524
916.524
916.525
916.525
916.525
916.526
916.526
916.526
916.526
916.526
916.526
916.526
916.526
916.526
916.526
916.526
916.525
916.525
916.525
916.524
916.524
916.523
916.523
916.522
916.522
916.522
916.521
916.521
916.52
916.52
916.52
916.519
916.519
916.519
916.519
916.518
916.518
916.518
916.518
916.518
916.518
916.517
916.517
916.517
916.517
916.517
916.517
916.517
916.517
916.517
916.517
916.517
916.517
916.517
916.518
916.518
916.518
916.518
916.518
916.519
916.519
916.519
916.52
916.52
916.521
916.521
916.522
916.522
916.523
916.523
916.524
916.524
916.525
916.525
916.525
916.526
916.526
916.526
916.526
916.526
916.526
916.526
916.526
916.526
916.525
916.525
916.524
916.523
916.522
916.521
916.52
916.518
916.517
916.515
916.513
916.512
916.51
916.508
916.506
916.503
916.501
916.499
916.497
916.494
916.492
916.49
916.488
916.485
916.483
916.482
916.48
916.478
916.477
916.476
916.475
916.474
916.473
916.473
916.474
916.474
916.475
916.476
916.478
916.479
916.481
916.484
916.486
916.489
916.492
916.496
916.499
916.502
916.506
916.509
916.513
916.516
916.519
916.523
916.526
916.529
916.532
916.534
916.537
916.539
916.541
916.544
916.546
916.547
916.549
916.551
916.553
916.554
916.555
916.557
916.558
916.558
916.559
916.559
916.559
916.558
916.556
916.554
916.551
916.548
916.543
916.537
916.531
916.523
916.515
916.505
916.495
916.484
916.473
916.461
916.45
916.438
916.428
916.418
916.409
916.402
916.395
916.389
916.385
916.38
916.376
916.372
916.367
916.362
916.356
916.35
916.343
916.336
916.33
916.325
916.321
916.32
916.321
916.323
916.326
916.327
916.322
916.303
916.257
916.169
916.021
915.793
915.44
914.738
912.713
905.515
878.203
748.828
570.52
451.695
380.305
340.143
318.267
306.505
300.208
296.84
295.04
294.078
293.563
293.288
293.141
293.062
293.02
292.998
292.986
292.979
292.976
292.974
292.973
292.973
292.972
292.972
292.972
292.972
292.972
292.972
292.972
292.972
292.972
292.973
292.973
292.973
292.973
292.973
292.973
292.973
292.973
292.973
292.973
292.973
292.973
292.973
292.973
292.973
292.973
292.973
292.973
292.973
292.974
292.974
292.974
292.974
292.974
292.974
292.974
292.974
292.974
292.974
292.974
292.974
292.974
292.974
292.974
292.974
292.974
292.974
292.974
292.975
292.975
292.975
292.975
292.975
292.975
292.975
292.975
292.975
292.975
292.975
292.975
292.975
292.975
292.975
292.975
292.975
292.975
292.975
292.975
292.976
292.976
292.976
292.976
292.976
292.976
292.976
292.976
292.976
292.976
292.976
292.976
292.976
292.976
292.976
292.976
292.976
292.976
292.976
292.977
292.977
292.977
292.977
292.977
292.977
292.977
292.977
292.977
292.977
292.977
292.977
292.977
292.977
292.977
292.977
292.977
292.977
292.977
292.977
292.978
292.978
292.978
292.978
292.978
292.978
292.978
292.978
292.978
292.978
292.978
292.978
292.978
292.978
292.978
292.978
292.978
292.978
292.979
292.979
292.979
292.979
292.979
292.979
292.979
292.979
292.979
292.979
292.979
292.979
292.979
292.979
292.979
292.979
292.979
292.979
292.979
292.979
292.98
292.98
292.98
292.98
292.98
292.98
292.98
292.98
292.98
292.98
292.98
292.98
292.98
292.98
292.98
292.98
292.98
292.98
292.981
292.981
292.981
292.981
292.981
292.981
292.981
292.981
292.981
292.981
292.981
292.981
292.981
292.981
292.981
292.981
292.981
292.981
292.981
292.982
292.982
292.982
292.982
292.982
292.982
292.982
292.982
292.982
292.982
292.982
292.982
292.982
292.982
292.982
292.982
292.982
292.982
292.982
292.983
292.983
292.983
292.983
292.983
292.983
292.983
292.983
292.983
292.983
292.983
292.983
292.983
292.983
292.983
292.983
292.983
292.983
292.983
292.983
292.984
292.984
292.984
292.984
292.984
292.984
292.984
292.984
292.984
292.984
292.984
292.984
292.984
292.984
292.984
292.984
292.984
292.984
292.984
292.985
292.985
292.985
292.985
292.985
292.985
292.985
292.985
292.985
292.985
292.985
292.985
292.985
292.985
292.985
292.985
292.985
292.985
292.985
292.986
292.986
292.986
292.986
292.986
292.986
292.986
292.986
292.986
292.986
292.986
292.986
292.986
292.986
292.986
292.986
292.986
292.986
292.986
292.987
292.987
292.987
292.987
292.987
292.987
292.987
292.987
292.987
292.987
292.987
292.987
292.987
)
;

boundaryField
{
    fixedWall
    {
        type            fixedValue;
        value           uniform 293;
    }
    outlet
    {
        type            inletOutlet;
        inletValue      uniform 293;
        value           uniform 292.987;
    }
    defaultFaces
    {
        type            empty;
    }
}


// ************************************************************************* //
