/*--------------------------------*- C++ -*----------------------------------*\
| =========                 |                                                 |
| \\      /  F ield         | OpenFOAM: The Open Source CFD Toolbox           |
|  \\    /   O peration     | Version:  2406                                  |
|   \\  /    A nd           | Website:  www.openfoam.com                      |
|    \\/     M anipulation  |                                                 |
\*---------------------------------------------------------------------------*/
FoamFile
{
    version     2.0;
    format      ascii;
    arch        "LSB;label=32;scalar=64";
    class       volScalarField;
    location    "9.8";
    object      O2;
}
// * * * * * * * * * * * * * * * * * * * * * * * * * * * * * * * * * * * * * //

dimensions      [0 0 0 0 0 0 0];

internalField   nonuniform List<scalar> 
1000
(
1.16586e-06
1.16385e-06
1.16022e-06
1.15523e-06
1.14908e-06
1.14192e-06
1.13388e-06
1.12506e-06
1.11554e-06
1.1054e-06
1.09471e-06
1.08351e-06
1.07185e-06
1.05979e-06
1.04736e-06
1.03459e-06
1.02153e-06
1.00819e-06
9.94611e-07
9.80817e-07
9.66833e-07
9.52682e-07
9.38385e-07
9.23965e-07
9.09441e-07
8.94833e-07
8.80159e-07
8.65437e-07
8.50685e-07
8.3592e-07
8.21158e-07
8.06415e-07
7.91708e-07
7.77051e-07
7.6246e-07
7.47948e-07
7.3353e-07
7.1922e-07
7.05031e-07
6.90975e-07
6.77065e-07
6.63313e-07
6.49729e-07
6.36324e-07
6.23108e-07
6.10091e-07
5.97281e-07
5.84685e-07
5.72312e-07
5.60168e-07
5.48259e-07
5.36589e-07
5.25165e-07
5.13989e-07
5.03065e-07
4.92396e-07
4.81983e-07
4.71828e-07
4.61932e-07
4.52295e-07
4.42917e-07
4.33797e-07
4.24934e-07
4.16326e-07
4.07971e-07
3.99867e-07
3.92011e-07
3.844e-07
3.7703e-07
3.69898e-07
3.63e-07
3.56332e-07
3.49889e-07
3.43667e-07
3.37661e-07
3.31868e-07
3.26281e-07
3.20896e-07
3.15708e-07
3.10712e-07
3.05903e-07
3.01277e-07
2.96827e-07
2.9255e-07
2.8844e-07
2.84492e-07
2.80702e-07
2.77064e-07
2.73573e-07
2.70226e-07
2.67018e-07
2.63943e-07
2.60998e-07
2.58178e-07
2.55479e-07
2.52897e-07
2.50427e-07
2.48066e-07
2.45809e-07
2.43654e-07
2.41596e-07
2.39631e-07
2.37757e-07
2.35969e-07
2.34265e-07
2.32642e-07
2.31095e-07
2.29623e-07
2.28222e-07
2.2689e-07
2.25623e-07
2.2442e-07
2.23277e-07
2.22192e-07
2.21163e-07
2.20188e-07
2.19264e-07
2.18389e-07
2.17562e-07
2.16779e-07
2.1604e-07
2.15342e-07
2.14684e-07
2.14063e-07
2.13479e-07
2.1293e-07
2.12414e-07
2.1193e-07
2.11476e-07
2.11051e-07
2.10654e-07
2.10284e-07
2.09939e-07
2.09618e-07
2.0932e-07
2.09044e-07
2.0879e-07
2.08555e-07
2.0834e-07
2.08143e-07
2.07963e-07
2.078e-07
2.07653e-07
2.07521e-07
2.07404e-07
2.073e-07
2.07209e-07
2.07131e-07
2.07065e-07
2.0701e-07
2.06966e-07
2.06932e-07
2.06908e-07
2.06894e-07
2.06888e-07
2.0689e-07
2.06901e-07
2.06919e-07
2.06945e-07
2.06977e-07
2.07016e-07
2.07061e-07
2.07112e-07
2.07169e-07
2.07231e-07
2.07298e-07
2.0737e-07
2.07447e-07
2.07528e-07
2.07613e-07
2.07702e-07
2.07795e-07
2.07892e-07
2.07991e-07
2.08094e-07
2.08201e-07
2.0831e-07
2.08421e-07
2.08536e-07
2.08653e-07
2.08772e-07
2.08893e-07
2.09017e-07
2.09143e-07
2.0927e-07
2.094e-07
2.09531e-07
2.09664e-07
2.09798e-07
2.09934e-07
2.10071e-07
2.1021e-07
2.1035e-07
2.10491e-07
2.10633e-07
2.10777e-07
2.10921e-07
2.11067e-07
2.11213e-07
2.11361e-07
2.11509e-07
2.11658e-07
2.11808e-07
2.11958e-07
2.1211e-07
2.12262e-07
2.12415e-07
2.12568e-07
2.12722e-07
2.12877e-07
2.13032e-07
2.13187e-07
2.13344e-07
2.135e-07
2.13658e-07
2.13815e-07
2.13973e-07
2.14132e-07
2.14291e-07
2.1445e-07
2.1461e-07
2.1477e-07
2.14931e-07
2.15092e-07
2.15253e-07
2.15414e-07
2.15576e-07
2.15739e-07
2.15901e-07
2.16064e-07
2.16227e-07
2.1639e-07
2.16554e-07
2.16718e-07
2.16881e-07
2.17046e-07
2.17211e-07
2.17376e-07
2.17541e-07
2.17707e-07
2.17873e-07
2.18039e-07
2.18206e-07
2.18372e-07
2.18539e-07
2.18706e-07
2.18873e-07
2.19041e-07
2.19209e-07
2.19377e-07
2.19545e-07
2.19713e-07
2.19882e-07
2.20051e-07
2.2022e-07
2.20389e-07
2.20559e-07
2.20728e-07
2.20898e-07
2.21068e-07
2.21239e-07
2.21409e-07
2.2158e-07
2.21751e-07
2.21922e-07
2.22094e-07
2.22265e-07
2.22437e-07
2.22609e-07
2.22782e-07
2.22954e-07
2.23127e-07
2.233e-07
2.23473e-07
2.23646e-07
2.2382e-07
2.23993e-07
2.24167e-07
2.24342e-07
2.24516e-07
2.24691e-07
2.24866e-07
2.25041e-07
2.25216e-07
2.25391e-07
2.25567e-07
2.25743e-07
2.25919e-07
2.26095e-07
2.26272e-07
2.26449e-07
2.26626e-07
2.26803e-07
2.26981e-07
2.27158e-07
2.27336e-07
2.27514e-07
2.27693e-07
2.27871e-07
2.2805e-07
2.28228e-07
2.28407e-07
2.28587e-07
2.28766e-07
2.28946e-07
2.29127e-07
2.29307e-07
2.29488e-07
2.29669e-07
2.2985e-07
2.30032e-07
2.30213e-07
2.30395e-07
2.30578e-07
2.3076e-07
2.30943e-07
2.31126e-07
2.31309e-07
2.31493e-07
2.31676e-07
2.3186e-07
2.32045e-07
2.32229e-07
2.32414e-07
2.32599e-07
2.32784e-07
2.3297e-07
2.33156e-07
2.33342e-07
2.33528e-07
2.33715e-07
2.33902e-07
2.34089e-07
2.34277e-07
2.34464e-07
2.34652e-07
2.34841e-07
2.35029e-07
2.35218e-07
2.35408e-07
2.35597e-07
2.35787e-07
2.35977e-07
2.36167e-07
2.36358e-07
2.36549e-07
2.3674e-07
2.36932e-07
2.37124e-07
2.37316e-07
2.37509e-07
2.37701e-07
2.37895e-07
2.38088e-07
2.38282e-07
2.38476e-07
2.3867e-07
2.38865e-07
2.3906e-07
2.39256e-07
2.39451e-07
2.39647e-07
2.39844e-07
2.4004e-07
2.40237e-07
2.40435e-07
2.40632e-07
2.40831e-07
2.41029e-07
2.41228e-07
2.41427e-07
2.41626e-07
2.41826e-07
2.42026e-07
2.42226e-07
2.42427e-07
2.42628e-07
2.4283e-07
2.43032e-07
2.43234e-07
2.43436e-07
2.43639e-07
2.43842e-07
2.44046e-07
2.4425e-07
2.44454e-07
2.44659e-07
2.44864e-07
2.45069e-07
2.45275e-07
2.45481e-07
2.45688e-07
2.45894e-07
2.46102e-07
2.46309e-07
2.46517e-07
2.46725e-07
2.46934e-07
2.47143e-07
2.47352e-07
2.47562e-07
2.47772e-07
2.47983e-07
2.48194e-07
2.48405e-07
2.48616e-07
2.48828e-07
2.49041e-07
2.49253e-07
2.49466e-07
2.4968e-07
2.49893e-07
2.50108e-07
2.50322e-07
2.50537e-07
2.50752e-07
2.50968e-07
2.51184e-07
2.514e-07
2.51617e-07
2.51834e-07
2.52052e-07
2.5227e-07
2.52488e-07
2.52707e-07
2.52926e-07
2.53145e-07
2.53365e-07
2.53585e-07
2.53805e-07
2.54026e-07
2.54248e-07
2.54469e-07
2.54691e-07
2.54914e-07
2.55137e-07
2.5536e-07
2.55583e-07
2.55807e-07
2.56032e-07
2.56257e-07
2.56482e-07
2.56707e-07
2.56933e-07
2.57159e-07
2.57386e-07
2.57613e-07
2.57841e-07
2.58069e-07
2.58297e-07
2.58526e-07
2.58755e-07
2.58984e-07
2.59214e-07
2.59444e-07
2.59675e-07
2.59906e-07
2.60138e-07
2.6037e-07
2.60602e-07
2.60835e-07
2.61068e-07
2.61301e-07
2.61535e-07
2.6177e-07
2.62004e-07
2.6224e-07
2.62475e-07
2.62711e-07
2.62948e-07
2.63185e-07
2.63422e-07
2.6366e-07
2.63898e-07
2.64137e-07
2.64376e-07
2.64615e-07
2.64855e-07
2.65096e-07
2.65336e-07
2.65578e-07
2.65819e-07
2.66061e-07
2.66304e-07
2.66547e-07
2.6679e-07
2.67034e-07
2.67279e-07
2.67523e-07
2.67769e-07
2.68014e-07
2.68261e-07
2.68507e-07
2.68754e-07
2.69002e-07
2.6925e-07
2.69498e-07
2.69747e-07
2.69997e-07
2.70247e-07
2.70497e-07
2.70748e-07
2.70999e-07
2.71251e-07
2.71503e-07
2.71756e-07
2.72009e-07
2.72262e-07
2.72517e-07
2.72771e-07
2.73026e-07
2.73282e-07
2.73538e-07
2.73794e-07
2.74051e-07
2.74309e-07
2.74567e-07
2.74825e-07
2.75084e-07
2.75344e-07
2.75604e-07
2.75864e-07
2.76125e-07
2.76386e-07
2.76648e-07
2.76911e-07
2.77174e-07
2.77437e-07
2.77701e-07
2.77966e-07
2.78231e-07
2.78496e-07
2.78762e-07
2.79029e-07
2.79295e-07
2.79563e-07
2.79831e-07
2.80099e-07
2.80369e-07
2.80638e-07
2.80908e-07
2.81179e-07
2.8145e-07
2.81721e-07
2.81994e-07
2.82266e-07
2.82539e-07
2.82813e-07
2.83087e-07
2.83362e-07
2.83637e-07
2.83913e-07
2.84189e-07
2.84466e-07
2.84744e-07
2.85022e-07
2.853e-07
2.85579e-07
2.85859e-07
2.86139e-07
2.86419e-07
2.867e-07
2.86982e-07
2.87264e-07
2.87547e-07
2.8783e-07
2.88114e-07
2.88399e-07
2.88684e-07
2.88969e-07
2.89255e-07
2.89542e-07
2.89829e-07
2.90117e-07
2.90405e-07
2.90694e-07
2.90983e-07
2.91273e-07
2.91564e-07
2.91855e-07
2.92147e-07
2.92439e-07
2.92732e-07
2.93025e-07
2.93319e-07
2.93614e-07
2.93909e-07
2.94205e-07
2.94501e-07
2.94798e-07
2.95096e-07
2.95394e-07
2.95693e-07
2.95992e-07
2.96292e-07
2.96593e-07
2.96894e-07
2.97196e-07
2.97498e-07
2.97801e-07
2.98105e-07
2.98409e-07
2.98714e-07
2.9902e-07
2.99326e-07
2.99633e-07
2.9994e-07
3.00248e-07
3.00557e-07
3.00866e-07
3.01176e-07
3.01487e-07
3.01799e-07
3.02111e-07
3.02423e-07
3.02736e-07
3.0305e-07
3.03365e-07
3.0368e-07
3.03996e-07
3.04313e-07
3.0463e-07
3.04948e-07
3.05267e-07
3.05584e-07
3.05904e-07
3.06225e-07
3.06546e-07
3.06868e-07
3.07191e-07
3.07514e-07
3.07839e-07
3.08163e-07
3.08489e-07
3.08815e-07
3.09142e-07
3.0947e-07
3.09799e-07
3.10128e-07
3.10458e-07
3.10788e-07
3.1112e-07
3.11452e-07
3.11784e-07
3.12118e-07
3.12452e-07
3.12787e-07
3.13123e-07
3.13459e-07
3.13796e-07
3.14134e-07
3.14473e-07
3.14812e-07
3.15152e-07
3.15493e-07
3.15835e-07
3.16177e-07
3.1652e-07
3.16864e-07
3.17209e-07
3.17554e-07
3.179e-07
3.18247e-07
3.18595e-07
3.18943e-07
3.19292e-07
3.19642e-07
3.19993e-07
3.20344e-07
3.20697e-07
3.2105e-07
3.21403e-07
3.21758e-07
3.22113e-07
3.22469e-07
3.22826e-07
3.23184e-07
3.23542e-07
3.23901e-07
3.24261e-07
3.24622e-07
3.24983e-07
3.25345e-07
3.25708e-07
3.26069e-07
3.26434e-07
3.26799e-07
3.27165e-07
3.27532e-07
3.279e-07
3.28268e-07
3.28637e-07
3.29007e-07
3.29378e-07
3.2975e-07
3.30122e-07
3.30495e-07
3.30869e-07
3.31244e-07
3.3162e-07
3.31996e-07
3.32373e-07
3.32751e-07
3.3313e-07
3.3351e-07
3.33891e-07
3.34272e-07
3.34654e-07
3.35037e-07
3.35421e-07
3.35806e-07
3.36192e-07
3.36578e-07
3.36965e-07
3.37353e-07
3.37742e-07
3.38132e-07
3.38523e-07
3.38915e-07
3.39307e-07
3.39701e-07
3.40095e-07
3.4049e-07
3.40887e-07
3.41284e-07
3.41682e-07
3.42081e-07
3.4248e-07
3.42881e-07
3.43283e-07
3.43686e-07
3.44089e-07
3.44494e-07
3.44899e-07
3.45306e-07
3.45713e-07
3.46122e-07
3.46532e-07
3.46942e-07
3.47354e-07
3.47766e-07
3.4818e-07
3.48594e-07
3.4901e-07
3.49426e-07
3.49844e-07
3.50263e-07
3.50683e-07
3.51103e-07
3.51525e-07
3.51948e-07
3.52372e-07
3.52794e-07
3.5322e-07
3.53648e-07
3.54076e-07
3.54505e-07
3.54936e-07
3.55368e-07
3.558e-07
3.56234e-07
3.56669e-07
3.57106e-07
3.57543e-07
3.57981e-07
3.58421e-07
3.58862e-07
3.59303e-07
3.59746e-07
3.60191e-07
3.60636e-07
3.61082e-07
3.6153e-07
3.61979e-07
3.62429e-07
3.6288e-07
3.63332e-07
3.63786e-07
3.64241e-07
3.64697e-07
3.65154e-07
3.65612e-07
3.66071e-07
3.6653e-07
3.66991e-07
3.67454e-07
3.67918e-07
3.68383e-07
3.68849e-07
3.69316e-07
3.69785e-07
3.70255e-07
3.70726e-07
3.71198e-07
3.71671e-07
3.72145e-07
3.72621e-07
3.73098e-07
3.73576e-07
3.74055e-07
3.74536e-07
3.75018e-07
3.75501e-07
3.75985e-07
3.7647e-07
3.76957e-07
3.77444e-07
3.77934e-07
3.78424e-07
3.78915e-07
3.79408e-07
3.79902e-07
3.80398e-07
3.80894e-07
3.81392e-07
3.81892e-07
3.82392e-07
3.82894e-07
3.83398e-07
3.83903e-07
3.84409e-07
3.84917e-07
3.85426e-07
3.85936e-07
3.86448e-07
3.86962e-07
3.87478e-07
3.87994e-07
3.88513e-07
3.89034e-07
3.89556e-07
3.9008e-07
3.90606e-07
3.91134e-07
3.91663e-07
3.92196e-07
3.9273e-07
3.93267e-07
3.93806e-07
3.94347e-07
3.94891e-07
3.95439e-07
3.95989e-07
3.96542e-07
3.97098e-07
3.97659e-07
3.98222e-07
3.9879e-07
3.99362e-07
3.99939e-07
4.0052e-07
4.01106e-07
4.01698e-07
4.02296e-07
4.02901e-07
4.03512e-07
4.0413e-07
4.04756e-07
4.05391e-07
4.06035e-07
4.06688e-07
4.07352e-07
4.08028e-07
4.08715e-07
4.09416e-07
4.10132e-07
4.10862e-07
4.11609e-07
4.12374e-07
4.13159e-07
4.13964e-07
4.14792e-07
4.15644e-07
4.16522e-07
4.17428e-07
4.18365e-07
4.19335e-07
4.20339e-07
4.21382e-07
4.22466e-07
4.23594e-07
4.24769e-07
4.25995e-07
4.27276e-07
4.28615e-07
4.30018e-07
4.31489e-07
4.33033e-07
4.34655e-07
4.36361e-07
4.38156e-07
4.40048e-07
4.42043e-07
4.44147e-07
4.4637e-07
4.48719e-07
4.51202e-07
4.53829e-07
4.56609e-07
4.59552e-07
4.62669e-07
4.65972e-07
4.69472e-07
4.73182e-07
4.77115e-07
4.81285e-07
4.85706e-07
4.90393e-07
4.95363e-07
5.00633e-07
5.06219e-07
5.12139e-07
5.18414e-07
5.25061e-07
5.32102e-07
5.39558e-07
5.47451e-07
5.55802e-07
5.64636e-07
5.73975e-07
5.83845e-07
5.9427e-07
6.05276e-07
6.16889e-07
6.29133e-07
6.42036e-07
6.55624e-07
6.69923e-07
6.84959e-07
7.00756e-07
7.1734e-07
7.34734e-07
7.52961e-07
7.72041e-07
7.91994e-07
8.12837e-07
8.34582e-07
8.57243e-07
8.80826e-07
9.05334e-07
9.30766e-07
9.57115e-07
9.84369e-07
1.01251e-06
1.04151e-06
1.07133e-06
1.10194e-06
1.13327e-06
1.16527e-06
1.19786e-06
1.23096e-06
1.26446e-06
1.29827e-06
1.33225e-06
1.36627e-06
1.40017e-06
1.43381e-06
1.46698e-06
1.49952e-06
1.5312e-06
1.56183e-06
1.59117e-06
1.61898e-06
1.64503e-06
1.66907e-06
1.69084e-06
1.7101e-06
1.72657e-06
1.74002e-06
1.75019e-06
1.75685e-06
1.7597e-06
1.75864e-06
1.7534e-06
1.7438e-06
1.72964e-06
1.71079e-06
1.68709e-06
1.65843e-06
1.62471e-06
1.58586e-06
1.54183e-06
1.49261e-06
1.43818e-06
1.3786e-06
1.31394e-06
1.24429e-06
1.16981e-06
1.0907e-06
1.00719e-06
9.19599e-07
8.28298e-07
7.33744e-07
6.36488e-07
5.37193e-07
4.36656e-07
3.35832e-07
2.35859e-07
1.38092e-07
4.41312e-08
)
;

boundaryField
{
    fixedWall
    {
        type            zeroGradient;
    }
    outlet
    {
        type            inletOutlet;
        inletValue      uniform 0;
        value           uniform 0;
    }
    defaultFaces
    {
        type            empty;
    }
}


// ************************************************************************* //
