/*--------------------------------*- C++ -*----------------------------------*\
| =========                 |                                                 |
| \\      /  F ield         | OpenFOAM: The Open Source CFD Toolbox           |
|  \\    /   O peration     | Version:  2406                                  |
|   \\  /    A nd           | Website:  www.openfoam.com                      |
|    \\/     M anipulation  |                                                 |
\*---------------------------------------------------------------------------*/
FoamFile
{
    version     2.0;
    format      ascii;
    arch        "LSB;label=32;scalar=64";
    class       surfaceScalarField;
    location    "9.8";
    object      phi;
}
// * * * * * * * * * * * * * * * * * * * * * * * * * * * * * * * * * * * * * //

dimensions      [1 0 -1 0 0 0 0];

oriented        oriented;

internalField   nonuniform List<scalar> 
999
(
-1.89996e-08
-6.30365e-08
-1.22564e-07
-1.91908e-07
-2.67521e-07
-3.47104e-07
-4.29111e-07
-5.12476e-07
-5.96466e-07
-6.8056e-07
-7.64383e-07
-8.47666e-07
-9.30216e-07
-1.01189e-06
-1.09258e-06
-1.17224e-06
-1.25079e-06
-1.32821e-06
-1.40447e-06
-1.47958e-06
-1.55351e-06
-1.62628e-06
-1.69788e-06
-1.76833e-06
-1.83763e-06
-1.90579e-06
-1.97283e-06
-2.03876e-06
-2.10359e-06
-2.16735e-06
-2.23003e-06
-2.29167e-06
-2.35226e-06
-2.41183e-06
-2.47039e-06
-2.52796e-06
-2.58454e-06
-2.64016e-06
-2.69482e-06
-2.74854e-06
-2.80133e-06
-2.8532e-06
-2.90417e-06
-2.95424e-06
-3.00343e-06
-3.05176e-06
-3.09922e-06
-3.14584e-06
-3.19162e-06
-3.23657e-06
-3.28071e-06
-3.32404e-06
-3.36658e-06
-3.40833e-06
-3.4493e-06
-3.48952e-06
-3.52897e-06
-3.56767e-06
-3.60564e-06
-3.64287e-06
-3.67939e-06
-3.71519e-06
-3.7503e-06
-3.78471e-06
-3.81843e-06
-3.85148e-06
-3.88386e-06
-3.91558e-06
-3.94665e-06
-3.97708e-06
-4.00687e-06
-4.03604e-06
-4.06459e-06
-4.09252e-06
-4.11986e-06
-4.14661e-06
-4.17277e-06
-4.19835e-06
-4.22336e-06
-4.24781e-06
-4.27171e-06
-4.29507e-06
-4.31788e-06
-4.34017e-06
-4.36194e-06
-4.38319e-06
-4.40394e-06
-4.42419e-06
-4.44395e-06
-4.46322e-06
-4.48202e-06
-4.50036e-06
-4.51824e-06
-4.53566e-06
-4.55264e-06
-4.56918e-06
-4.5853e-06
-4.60099e-06
-4.61627e-06
-4.63114e-06
-4.64562e-06
-4.6597e-06
-4.6734e-06
-4.68672e-06
-4.69967e-06
-4.71226e-06
-4.7245e-06
-4.73639e-06
-4.74793e-06
-4.75915e-06
-4.77003e-06
-4.7806e-06
-4.79085e-06
-4.80079e-06
-4.81044e-06
-4.81979e-06
-4.82886e-06
-4.83764e-06
-4.84615e-06
-4.8544e-06
-4.86238e-06
-4.87011e-06
-4.87759e-06
-4.88483e-06
-4.89184e-06
-4.89861e-06
-4.90515e-06
-4.91148e-06
-4.9176e-06
-4.92351e-06
-4.92921e-06
-4.93472e-06
-4.94004e-06
-4.94517e-06
-4.95012e-06
-4.9549e-06
-4.9595e-06
-4.96394e-06
-4.96822e-06
-4.97234e-06
-4.97631e-06
-4.98013e-06
-4.98381e-06
-4.98734e-06
-4.99074e-06
-4.99401e-06
-4.99715e-06
-5.00017e-06
-5.00307e-06
-5.00588e-06
-5.00858e-06
-5.01117e-06
-5.01362e-06
-5.01597e-06
-5.01825e-06
-5.02044e-06
-5.02254e-06
-5.02455e-06
-5.02646e-06
-5.02831e-06
-5.03009e-06
-5.0318e-06
-5.03344e-06
-5.035e-06
-5.0365e-06
-5.03793e-06
-5.03929e-06
-5.04059e-06
-5.04184e-06
-5.04303e-06
-5.04416e-06
-5.04525e-06
-5.04629e-06
-5.04727e-06
-5.04821e-06
-5.04911e-06
-5.04997e-06
-5.05078e-06
-5.05156e-06
-5.05231e-06
-5.05302e-06
-5.05369e-06
-5.05433e-06
-5.05494e-06
-5.05552e-06
-5.05608e-06
-5.0566e-06
-5.0571e-06
-5.05757e-06
-5.05803e-06
-5.05845e-06
-5.05886e-06
-5.05925e-06
-5.05962e-06
-5.05997e-06
-5.0603e-06
-5.06061e-06
-5.06091e-06
-5.06119e-06
-5.06146e-06
-5.06171e-06
-5.06195e-06
-5.06218e-06
-5.06239e-06
-5.06259e-06
-5.06279e-06
-5.06297e-06
-5.06314e-06
-5.0633e-06
-5.06345e-06
-5.0636e-06
-5.06373e-06
-5.06386e-06
-5.06398e-06
-5.0641e-06
-5.06421e-06
-5.06431e-06
-5.06441e-06
-5.0645e-06
-5.06458e-06
-5.06466e-06
-5.06474e-06
-5.06481e-06
-5.06487e-06
-5.06493e-06
-5.06499e-06
-5.06505e-06
-5.0651e-06
-5.06515e-06
-5.06519e-06
-5.06523e-06
-5.06527e-06
-5.06531e-06
-5.06534e-06
-5.06538e-06
-5.0654e-06
-5.06543e-06
-5.06545e-06
-5.06548e-06
-5.0655e-06
-5.06552e-06
-5.06554e-06
-5.06555e-06
-5.06557e-06
-5.06558e-06
-5.06559e-06
-5.06561e-06
-5.06562e-06
-5.06562e-06
-5.06563e-06
-5.06564e-06
-5.06565e-06
-5.06565e-06
-5.06565e-06
-5.06566e-06
-5.06566e-06
-5.06566e-06
-5.06567e-06
-5.06567e-06
-5.06567e-06
-5.06567e-06
-5.06567e-06
-5.06566e-06
-5.06566e-06
-5.06566e-06
-5.06566e-06
-5.06565e-06
-5.06565e-06
-5.06565e-06
-5.06565e-06
-5.06564e-06
-5.06564e-06
-5.06563e-06
-5.06563e-06
-5.06562e-06
-5.06561e-06
-5.06561e-06
-5.0656e-06
-5.0656e-06
-5.06559e-06
-5.06558e-06
-5.06558e-06
-5.06557e-06
-5.06556e-06
-5.06555e-06
-5.06555e-06
-5.06554e-06
-5.06553e-06
-5.06553e-06
-5.06552e-06
-5.06551e-06
-5.0655e-06
-5.0655e-06
-5.06549e-06
-5.06548e-06
-5.06547e-06
-5.06547e-06
-5.06546e-06
-5.06545e-06
-5.06544e-06
-5.06544e-06
-5.06543e-06
-5.06542e-06
-5.06541e-06
-5.06541e-06
-5.0654e-06
-5.06539e-06
-5.06538e-06
-5.06538e-06
-5.06537e-06
-5.06536e-06
-5.06536e-06
-5.06535e-06
-5.06534e-06
-5.06533e-06
-5.06533e-06
-5.06532e-06
-5.06531e-06
-5.06531e-06
-5.0653e-06
-5.0653e-06
-5.06529e-06
-5.06528e-06
-5.06528e-06
-5.06527e-06
-5.06527e-06
-5.06526e-06
-5.06526e-06
-5.06525e-06
-5.06525e-06
-5.06524e-06
-5.06524e-06
-5.06523e-06
-5.06523e-06
-5.06523e-06
-5.06522e-06
-5.06522e-06
-5.06521e-06
-5.06521e-06
-5.06521e-06
-5.0652e-06
-5.0652e-06
-5.0652e-06
-5.06519e-06
-5.06519e-06
-5.06519e-06
-5.06518e-06
-5.06518e-06
-5.06518e-06
-5.06518e-06
-5.06518e-06
-5.06518e-06
-5.06517e-06
-5.06517e-06
-5.06517e-06
-5.06517e-06
-5.06517e-06
-5.06517e-06
-5.06517e-06
-5.06517e-06
-5.06517e-06
-5.06516e-06
-5.06516e-06
-5.06516e-06
-5.06516e-06
-5.06516e-06
-5.06516e-06
-5.06516e-06
-5.06516e-06
-5.06516e-06
-5.06516e-06
-5.06516e-06
-5.06516e-06
-5.06516e-06
-5.06517e-06
-5.06517e-06
-5.06517e-06
-5.06517e-06
-5.06517e-06
-5.06517e-06
-5.06517e-06
-5.06517e-06
-5.06518e-06
-5.06518e-06
-5.06518e-06
-5.06518e-06
-5.06518e-06
-5.06518e-06
-5.06518e-06
-5.06518e-06
-5.06518e-06
-5.06519e-06
-5.06519e-06
-5.06519e-06
-5.06519e-06
-5.06519e-06
-5.06519e-06
-5.06519e-06
-5.0652e-06
-5.0652e-06
-5.0652e-06
-5.0652e-06
-5.0652e-06
-5.0652e-06
-5.0652e-06
-5.06521e-06
-5.06521e-06
-5.06521e-06
-5.06521e-06
-5.06521e-06
-5.06521e-06
-5.06521e-06
-5.06521e-06
-5.06521e-06
-5.06521e-06
-5.06522e-06
-5.06522e-06
-5.06522e-06
-5.06522e-06
-5.06522e-06
-5.06522e-06
-5.06522e-06
-5.06522e-06
-5.06522e-06
-5.06522e-06
-5.06522e-06
-5.06522e-06
-5.06522e-06
-5.06522e-06
-5.06522e-06
-5.06522e-06
-5.06522e-06
-5.06522e-06
-5.06522e-06
-5.06522e-06
-5.06522e-06
-5.06522e-06
-5.06522e-06
-5.06522e-06
-5.06522e-06
-5.06522e-06
-5.06521e-06
-5.06521e-06
-5.06521e-06
-5.06521e-06
-5.06521e-06
-5.06521e-06
-5.06521e-06
-5.06521e-06
-5.06521e-06
-5.06521e-06
-5.06521e-06
-5.0652e-06
-5.0652e-06
-5.0652e-06
-5.0652e-06
-5.0652e-06
-5.0652e-06
-5.0652e-06
-5.0652e-06
-5.0652e-06
-5.0652e-06
-5.0652e-06
-5.0652e-06
-5.0652e-06
-5.06519e-06
-5.06519e-06
-5.06519e-06
-5.06519e-06
-5.06519e-06
-5.06519e-06
-5.06519e-06
-5.06519e-06
-5.06519e-06
-5.06519e-06
-5.06519e-06
-5.06519e-06
-5.06519e-06
-5.06519e-06
-5.06519e-06
-5.06519e-06
-5.06519e-06
-5.06519e-06
-5.06519e-06
-5.06519e-06
-5.06518e-06
-5.06518e-06
-5.06518e-06
-5.06518e-06
-5.06518e-06
-5.06518e-06
-5.06518e-06
-5.06518e-06
-5.06518e-06
-5.06518e-06
-5.06518e-06
-5.06518e-06
-5.06518e-06
-5.06518e-06
-5.06518e-06
-5.06518e-06
-5.06518e-06
-5.06518e-06
-5.06518e-06
-5.06518e-06
-5.06518e-06
-5.06518e-06
-5.06518e-06
-5.06518e-06
-5.06518e-06
-5.06518e-06
-5.06518e-06
-5.06518e-06
-5.06518e-06
-5.06518e-06
-5.06518e-06
-5.06518e-06
-5.06518e-06
-5.06518e-06
-5.06518e-06
-5.06518e-06
-5.06518e-06
-5.06518e-06
-5.06518e-06
-5.06518e-06
-5.06518e-06
-5.06517e-06
-5.06517e-06
-5.06517e-06
-5.06517e-06
-5.06517e-06
-5.06517e-06
-5.06517e-06
-5.06517e-06
-5.06517e-06
-5.06517e-06
-5.06517e-06
-5.06516e-06
-5.06516e-06
-5.06516e-06
-5.06516e-06
-5.06516e-06
-5.06516e-06
-5.06516e-06
-5.06516e-06
-5.06515e-06
-5.06515e-06
-5.06515e-06
-5.06515e-06
-5.06515e-06
-5.06514e-06
-5.06514e-06
-5.06514e-06
-5.06514e-06
-5.06514e-06
-5.06514e-06
-5.06514e-06
-5.06513e-06
-5.06513e-06
-5.06513e-06
-5.06513e-06
-5.06513e-06
-5.06513e-06
-5.06512e-06
-5.06512e-06
-5.06512e-06
-5.06512e-06
-5.06512e-06
-5.06511e-06
-5.06511e-06
-5.06511e-06
-5.06511e-06
-5.06511e-06
-5.0651e-06
-5.0651e-06
-5.0651e-06
-5.0651e-06
-5.0651e-06
-5.06509e-06
-5.06509e-06
-5.06509e-06
-5.06509e-06
-5.06509e-06
-5.06509e-06
-5.06508e-06
-5.06508e-06
-5.06508e-06
-5.06508e-06
-5.06508e-06
-5.06508e-06
-5.06508e-06
-5.06508e-06
-5.06508e-06
-5.06507e-06
-5.06507e-06
-5.06507e-06
-5.06507e-06
-5.06507e-06
-5.06507e-06
-5.06507e-06
-5.06507e-06
-5.06507e-06
-5.06507e-06
-5.06507e-06
-5.06507e-06
-5.06507e-06
-5.06507e-06
-5.06507e-06
-5.06507e-06
-5.06508e-06
-5.06508e-06
-5.06508e-06
-5.06508e-06
-5.06508e-06
-5.06508e-06
-5.06508e-06
-5.06508e-06
-5.06508e-06
-5.06508e-06
-5.06508e-06
-5.06508e-06
-5.06508e-06
-5.06508e-06
-5.06508e-06
-5.06509e-06
-5.06509e-06
-5.06509e-06
-5.06509e-06
-5.06509e-06
-5.06509e-06
-5.06509e-06
-5.06509e-06
-5.06509e-06
-5.06509e-06
-5.0651e-06
-5.0651e-06
-5.0651e-06
-5.0651e-06
-5.0651e-06
-5.0651e-06
-5.0651e-06
-5.0651e-06
-5.0651e-06
-5.0651e-06
-5.0651e-06
-5.06511e-06
-5.06511e-06
-5.06511e-06
-5.06511e-06
-5.06511e-06
-5.06511e-06
-5.06511e-06
-5.06511e-06
-5.06511e-06
-5.06511e-06
-5.06511e-06
-5.06511e-06
-5.06511e-06
-5.06511e-06
-5.06511e-06
-5.06511e-06
-5.0651e-06
-5.0651e-06
-5.0651e-06
-5.0651e-06
-5.0651e-06
-5.0651e-06
-5.0651e-06
-5.0651e-06
-5.06509e-06
-5.06509e-06
-5.06509e-06
-5.06509e-06
-5.06508e-06
-5.06508e-06
-5.06508e-06
-5.06508e-06
-5.06507e-06
-5.06507e-06
-5.06507e-06
-5.06506e-06
-5.06506e-06
-5.06506e-06
-5.06505e-06
-5.06505e-06
-5.06505e-06
-5.06504e-06
-5.06504e-06
-5.06503e-06
-5.06503e-06
-5.06502e-06
-5.06502e-06
-5.06502e-06
-5.06501e-06
-5.06501e-06
-5.065e-06
-5.065e-06
-5.06499e-06
-5.06499e-06
-5.06499e-06
-5.06498e-06
-5.06498e-06
-5.06497e-06
-5.06497e-06
-5.06496e-06
-5.06496e-06
-5.06496e-06
-5.06495e-06
-5.06495e-06
-5.06494e-06
-5.06494e-06
-5.06494e-06
-5.06493e-06
-5.06493e-06
-5.06493e-06
-5.06492e-06
-5.06492e-06
-5.06492e-06
-5.06491e-06
-5.06491e-06
-5.06491e-06
-5.06491e-06
-5.06491e-06
-5.06491e-06
-5.0649e-06
-5.0649e-06
-5.0649e-06
-5.0649e-06
-5.0649e-06
-5.0649e-06
-5.0649e-06
-5.0649e-06
-5.0649e-06
-5.0649e-06
-5.0649e-06
-5.0649e-06
-5.06491e-06
-5.06491e-06
-5.06491e-06
-5.06491e-06
-5.06491e-06
-5.06492e-06
-5.06492e-06
-5.06492e-06
-5.06492e-06
-5.06493e-06
-5.06493e-06
-5.06493e-06
-5.06494e-06
-5.06494e-06
-5.06494e-06
-5.06495e-06
-5.06495e-06
-5.06496e-06
-5.06496e-06
-5.06497e-06
-5.06497e-06
-5.06497e-06
-5.06498e-06
-5.06498e-06
-5.06499e-06
-5.065e-06
-5.065e-06
-5.06501e-06
-5.06501e-06
-5.06502e-06
-5.06502e-06
-5.06502e-06
-5.06503e-06
-5.06503e-06
-5.06504e-06
-5.06504e-06
-5.06505e-06
-5.06505e-06
-5.06506e-06
-5.06506e-06
-5.06506e-06
-5.06507e-06
-5.06507e-06
-5.06507e-06
-5.06508e-06
-5.06508e-06
-5.06509e-06
-5.06509e-06
-5.06509e-06
-5.0651e-06
-5.0651e-06
-5.0651e-06
-5.0651e-06
-5.06511e-06
-5.06511e-06
-5.06512e-06
-5.06512e-06
-5.06512e-06
-5.06513e-06
-5.06513e-06
-5.06513e-06
-5.06514e-06
-5.06514e-06
-5.06515e-06
-5.06515e-06
-5.06516e-06
-5.06517e-06
-5.06518e-06
-5.06519e-06
-5.0652e-06
-5.06521e-06
-5.06522e-06
-5.06524e-06
-5.06525e-06
-5.06527e-06
-5.06529e-06
-5.06532e-06
-5.06534e-06
-5.06537e-06
-5.06541e-06
-5.06544e-06
-5.06548e-06
-5.06553e-06
-5.06558e-06
-5.06564e-06
-5.0657e-06
-5.06576e-06
-5.06584e-06
-5.06592e-06
-5.06602e-06
-5.06612e-06
-5.06623e-06
-5.06635e-06
-5.06649e-06
-5.06664e-06
-5.0668e-06
-5.06698e-06
-5.06718e-06
-5.0674e-06
-5.06763e-06
-5.06789e-06
-5.06818e-06
-5.06849e-06
-5.06882e-06
-5.06919e-06
-5.0696e-06
-5.07004e-06
-5.07052e-06
-5.07104e-06
-5.07161e-06
-5.07222e-06
-5.0729e-06
-5.07362e-06
-5.07441e-06
-5.07527e-06
-5.0762e-06
-5.07721e-06
-5.0783e-06
-5.07948e-06
-5.08076e-06
-5.08214e-06
-5.08363e-06
-5.08524e-06
-5.08698e-06
-5.08885e-06
-5.09087e-06
-5.09304e-06
-5.09538e-06
-5.0979e-06
-5.10061e-06
-5.10351e-06
-5.10663e-06
-5.10999e-06
-5.11358e-06
-5.11743e-06
-5.12156e-06
-5.12597e-06
-5.1307e-06
-5.13575e-06
-5.14115e-06
-5.14692e-06
-5.15308e-06
-5.15964e-06
-5.16664e-06
-5.1741e-06
-5.18205e-06
-5.1905e-06
-5.19949e-06
-5.20904e-06
-5.21919e-06
-5.22997e-06
-5.2414e-06
-5.25352e-06
-5.26637e-06
-5.27997e-06
-5.29437e-06
-5.3096e-06
-5.32571e-06
-5.34272e-06
-5.36069e-06
-5.37964e-06
-5.39964e-06
-5.42071e-06
-5.44292e-06
-5.46629e-06
-5.49089e-06
-5.51675e-06
-5.54394e-06
-5.57249e-06
-5.60247e-06
-5.63392e-06
-5.6669e-06
-5.70147e-06
-5.73768e-06
-5.77559e-06
-5.81525e-06
-5.85673e-06
-5.90008e-06
-5.94537e-06
-5.99265e-06
-6.042e-06
-6.09347e-06
-6.14712e-06
-6.20303e-06
-6.26125e-06
-6.32186e-06
-6.38492e-06
-6.4505e-06
-6.51866e-06
-6.58948e-06
-6.66302e-06
-6.73937e-06
-6.81857e-06
-6.90072e-06
-6.98588e-06
-7.07412e-06
-7.16552e-06
-7.26015e-06
-7.35809e-06
-7.45941e-06
-7.56419e-06
-7.67252e-06
-7.78446e-06
-7.90009e-06
-8.01951e-06
-8.14278e-06
-8.27e-06
-8.40124e-06
-8.5366e-06
-8.67616e-06
-8.82001e-06
-8.96825e-06
-9.12095e-06
-9.27824e-06
-9.44019e-06
-9.60691e-06
-9.77851e-06
-9.95509e-06
-1.01368e-05
-1.03237e-05
-1.05159e-05
-1.07135e-05
-1.09168e-05
-1.11258e-05
-1.13406e-05
-1.15615e-05
-1.17885e-05
-1.20218e-05
-1.22616e-05
-1.2508e-05
-1.27611e-05
-1.30211e-05
-1.32879e-05
-1.35615e-05
-1.38415e-05
-1.4123e-05
-1.44275e-05
-1.47385e-05
-1.50569e-05
-1.53835e-05
-1.5719e-05
-1.60637e-05
-1.64182e-05
-1.67828e-05
-1.71578e-05
-1.75435e-05
-1.79401e-05
-1.83475e-05
-1.87658e-05
-1.91948e-05
-1.96341e-05
-2.00828e-05
-2.054e-05
-2.10038e-05
-2.1472e-05
-2.19412e-05
-2.24068e-05
-2.28624e-05
-2.32996e-05
-2.37069e-05
-2.40692e-05
-2.43661e-05
-2.45711e-05
)
;

boundaryField
{
    fixedWall
    {
        type            calculated;
        value           uniform 0;
    }
    outlet
    {
        type            calculated;
        value           uniform -2.46495e-05;
    }
    defaultFaces
    {
        type            empty;
    }
}


// ************************************************************************* //
