/*--------------------------------*- C++ -*----------------------------------*\
| =========                 |                                                 |
| \\      /  F ield         | OpenFOAM: The Open Source CFD Toolbox           |
|  \\    /   O peration     | Version:  2406                                  |
|   \\  /    A nd           | Website:  www.openfoam.com                      |
|    \\/     M anipulation  |                                                 |
\*---------------------------------------------------------------------------*/
FoamFile
{
    version     2.0;
    format      ascii;
    arch        "LSB;label=32;scalar=64";
    class       volScalarField;
    location    "9.8";
    object      Qdot;
}
// * * * * * * * * * * * * * * * * * * * * * * * * * * * * * * * * * * * * * //

dimensions      [1 -1 -3 0 0 0 0];

internalField   nonuniform List<scalar> 
1000
(
4.98397e-14
-3.43201e-17
-4.81991e-16
3.80442e-09
1.14133e-08
5.56944e-08
2.1412e-07
6.77844e-07
1.86888e-06
4.60725e-06
1.02806e-05
2.11658e-05
4.06099e-05
7.33331e-05
0.000125605
0.000205411
0.000322463
0.000488163
0.00071542
0.0010184
0.00141213
0.00191213
0.00253383
0.00329216
0.00420098
0.00527264
0.00651752
0.00794365
0.00955643
0.0113584
0.0133491
0.015525
0.0178798
0.0204042
0.0230863
0.0259117
0.0288642
0.0319257
0.0350767
0.038297
0.0415656
0.0448613
0.0481633
0.0514509
0.0547045
0.0579054
0.0610362
0.064081
0.0670252
0.0698563
0.0725633
0.0751368
0.0775694
0.0798554
0.0819906
0.0839724
0.0857998
0.0874729
0.0889934
0.0903637
0.0915875
0.0926691
0.0936137
0.0944271
0.0951155
0.0956853
0.0961436
0.0964973
0.0967536
0.0969196
0.0970024
0.0970089
0.0969461
0.0968204
0.0966384
0.0964061
0.0961294
0.0958139
0.0954646
0.0950867
0.0946846
0.0942627
0.0938249
0.0933749
0.0929161
0.0924516
0.0919841
0.0915161
0.0910501
0.0905881
0.0901318
0.0896829
0.0892428
0.0888128
0.088394
0.0879872
0.0875932
0.0872127
0.0868462
0.0864941
0.0861568
0.0858343
0.0855269
0.0852346
0.0849574
0.0846952
0.084448
0.0842155
0.0839975
0.0837938
0.0836042
0.0834283
0.0832658
0.0831164
0.0829796
0.0828553
0.0827429
0.0826421
0.0825525
0.0824737
0.0824054
0.0823471
0.0822985
0.0822592
0.0822288
0.082207
0.0821933
0.0821875
0.0821892
0.0821981
0.0822137
0.0822359
0.0822643
0.0822986
0.0823385
0.0823837
0.082434
0.0824891
0.0825488
0.0826128
0.0826809
0.0827529
0.0828285
0.0829076
0.08299
0.0830755
0.0831638
0.083255
0.0833487
0.0834449
0.083543
0.0836437
0.0837459
0.0838501
0.0839565
0.0840646
0.0841743
0.0842855
0.0843981
0.084512
0.0846272
0.0847435
0.0848609
0.0849794
0.0850988
0.0852191
0.0853403
0.0854623
0.085585
0.0857085
0.0858326
0.0859574
0.0860828
0.0862083
0.0863348
0.0864618
0.0865893
0.0867172
0.0868455
0.0869743
0.0871034
0.0872329
0.0873629
0.0874931
0.0876231
0.0877541
0.0878853
0.0880168
0.0881486
0.0882806
0.088413
0.0885456
0.0886785
0.0888116
0.088945
0.0890786
0.0892125
0.0893467
0.0894811
0.0896157
0.0897506
0.0898858
0.0900212
0.0901565
0.0902924
0.0904285
0.0905649
0.0907015
0.0908383
0.0909754
0.0911127
0.0912502
0.091388
0.0915261
0.0916644
0.0918029
0.0919417
0.0920808
0.0922201
0.0923596
0.0924994
0.0926395
0.0927798
0.0929204
0.0930613
0.0932024
0.0933438
0.0934854
0.0936274
0.0937696
0.093912
0.0940548
0.0941975
0.0943401
0.0944838
0.0946277
0.0947719
0.0949164
0.0950612
0.0952062
0.0953515
0.0954971
0.095643
0.0957892
0.0959356
0.0960824
0.0962294
0.0963768
0.0965244
0.0966723
0.0968205
0.096969
0.0971178
0.097267
0.0974164
0.0975661
0.0977161
0.0978665
0.0980171
0.098168
0.0983193
0.0984709
0.0986227
0.0987749
0.0989274
0.0990803
0.0992334
0.0993869
0.0995406
0.0996947
0.0998492
0.100004
0.100159
0.100314
0.10047
0.100626
0.100783
0.100939
0.101096
0.101254
0.101411
0.101569
0.101728
0.101886
0.102046
0.102205
0.102365
0.102525
0.102685
0.102846
0.103007
0.103169
0.10333
0.103493
0.103655
0.103818
0.103981
0.104145
0.104309
0.104472
0.104636
0.104801
0.104967
0.105132
0.105298
0.105465
0.105632
0.105799
0.105967
0.106135
0.106303
0.106472
0.106641
0.10681
0.10698
0.107151
0.107321
0.107492
0.107664
0.107835
0.108008
0.10818
0.108353
0.108527
0.1087
0.108875
0.109049
0.109224
0.1094
0.109575
0.109752
0.109928
0.110105
0.110283
0.110461
0.110639
0.110818
0.110997
0.111176
0.111356
0.111537
0.111718
0.111899
0.11208
0.112263
0.112445
0.112628
0.112812
0.112996
0.11318
0.113365
0.11355
0.113736
0.113922
0.114108
0.114296
0.114483
0.114671
0.11486
0.115048
0.115238
0.115428
0.115618
0.115809
0.116
0.116192
0.116384
0.116577
0.11677
0.116964
0.117158
0.117353
0.117548
0.117744
0.11794
0.118136
0.118333
0.118531
0.118729
0.118928
0.119127
0.119327
0.119527
0.119728
0.119929
0.120131
0.120333
0.120536
0.120739
0.120943
0.121147
0.121352
0.121557
0.121763
0.12197
0.122177
0.122384
0.122592
0.122801
0.12301
0.123219
0.12343
0.12364
0.123851
0.124063
0.124276
0.124489
0.124702
0.124916
0.125131
0.125346
0.125561
0.125777
0.125994
0.126212
0.126429
0.126648
0.126867
0.127086
0.127307
0.127527
0.127749
0.12797
0.128193
0.128416
0.128639
0.128864
0.129088
0.129314
0.12954
0.129766
0.129993
0.130221
0.130449
0.130678
0.130907
0.131137
0.131368
0.131599
0.131831
0.132064
0.132297
0.13253
0.132765
0.133
0.133235
0.133471
0.133708
0.133945
0.134183
0.134422
0.134661
0.134901
0.135142
0.135383
0.135625
0.135867
0.13611
0.136354
0.136598
0.136844
0.137089
0.137336
0.137583
0.13783
0.138079
0.138328
0.138577
0.138828
0.139079
0.139331
0.139583
0.139836
0.14009
0.140344
0.1406
0.140855
0.141112
0.141369
0.141627
0.141886
0.142145
0.142405
0.142666
0.142928
0.14319
0.143453
0.143717
0.143981
0.144246
0.144512
0.144779
0.145046
0.145314
0.145583
0.145853
0.146123
0.146394
0.146666
0.146939
0.147212
0.147487
0.147762
0.148037
0.148314
0.148591
0.148869
0.149148
0.149428
0.149708
0.149989
0.150271
0.150554
0.150838
0.151122
0.151407
0.151693
0.15198
0.152268
0.152556
0.152846
0.153136
0.153426
0.153718
0.154011
0.154304
0.154599
0.154894
0.15519
0.155487
0.155785
0.156083
0.156383
0.156683
0.156984
0.157286
0.157589
0.157893
0.158198
0.158503
0.15881
0.159117
0.159425
0.159734
0.160044
0.160355
0.160667
0.16098
0.161293
0.161608
0.161923
0.16224
0.162557
0.162875
0.163194
0.163514
0.163835
0.164157
0.16448
0.164804
0.165129
0.165454
0.165781
0.166109
0.166437
0.166767
0.167097
0.167429
0.167761
0.168095
0.168429
0.168765
0.169101
0.169439
0.169777
0.170116
0.170457
0.170798
0.171141
0.171484
0.171829
0.172174
0.172521
0.172869
0.173217
0.173567
0.173918
0.17427
0.174623
0.174977
0.175332
0.175688
0.176045
0.176403
0.176763
0.177123
0.177485
0.177847
0.178211
0.178576
0.178942
0.179309
0.179678
0.180047
0.180418
0.180789
0.181162
0.181536
0.181912
0.182288
0.182665
0.183044
0.183424
0.183805
0.184188
0.184571
0.184956
0.185342
0.185729
0.186117
0.186507
0.186898
0.18729
0.187683
0.188075
0.188471
0.188868
0.189266
0.189666
0.190066
0.190469
0.190872
0.191277
0.191683
0.192091
0.192499
0.192909
0.193321
0.193733
0.194148
0.194563
0.19498
0.195398
0.195817
0.196238
0.19666
0.197084
0.197509
0.197935
0.198363
0.198792
0.199223
0.199654
0.200088
0.200523
0.200959
0.201397
0.201836
0.202276
0.202718
0.203162
0.203606
0.204053
0.204501
0.20495
0.205401
0.205853
0.206307
0.206762
0.207219
0.207677
0.208137
0.208598
0.209061
0.209526
0.209992
0.210459
0.210928
0.211399
0.211871
0.212345
0.21282
0.213297
0.213775
0.214252
0.214733
0.215216
0.215701
0.216187
0.216675
0.217164
0.217655
0.218148
0.218643
0.219139
0.219636
0.220136
0.220637
0.22114
0.221644
0.22215
0.222658
0.223167
0.223679
0.224192
0.224706
0.225223
0.225741
0.226261
0.226782
0.227306
0.227831
0.228358
0.228887
0.229417
0.229949
0.230484
0.23102
0.231558
0.232097
0.232639
0.233182
0.233728
0.234275
0.234824
0.235375
0.235928
0.236483
0.23704
0.237599
0.23816
0.238723
0.239288
0.239855
0.240424
0.240995
0.241568
0.242143
0.24272
0.243299
0.243881
0.244464
0.24505
0.245637
0.246227
0.246819
0.247414
0.24801
0.248609
0.24921
0.249813
0.250418
0.251021
0.251631
0.252243
0.252857
0.253474
0.254093
0.254714
0.255338
0.255964
0.256592
0.257223
0.257856
0.258492
0.25913
0.25977
0.260413
0.261058
0.261706
0.262356
0.263009
0.263664
0.264322
0.264982
0.265645
0.26631
0.266978
0.267648
0.268321
0.268997
0.269675
0.270356
0.27104
0.271724
0.272409
0.2731
0.273794
0.27449
0.275189
0.27589
0.276594
0.277301
0.27801
0.278722
0.279437
0.280154
0.280874
0.281597
0.282323
0.283051
0.283782
0.284516
0.285252
0.285992
0.286734
0.287479
0.288227
0.288977
0.289731
0.290487
0.291246
0.292008
0.292773
0.29354
0.294311
0.295085
0.295861
0.29664
0.297423
0.298208
0.298996
0.299787
0.300581
0.301379
0.302179
0.302982
0.303788
0.304597
0.30541
0.306225
0.307043
0.307865
0.30869
0.309517
0.310348
0.311182
0.31202
0.31286
0.313704
0.314551
0.315401
0.316255
0.317112
0.317973
0.318837
0.319704
0.320576
0.32145
0.322329
0.323212
0.324098
0.324989
0.325884
0.326784
0.327688
0.328597
0.329511
0.33043
0.331355
0.332286
0.333223
0.334167
0.335119
0.336078
0.337045
0.338021
0.339007
0.340003
0.341011
0.34203
0.343063
0.344111
0.345174
0.346255
0.347353
0.348473
0.349614
0.35078
0.351972
0.353193
0.354445
0.355731
0.357054
0.358418
0.359826
0.361282
0.36279
0.364354
0.36598
0.367672
0.369436
0.371278
0.373204
0.375221
0.377336
0.379556
0.38189
0.384345
0.386932
0.389658
0.392535
0.395571
0.398779
0.402168
0.405751
0.40954
0.413546
0.417783
0.422263
0.426999
0.432004
0.437291
0.442873
0.448762
0.45497
0.46151
0.46839
0.475621
0.48321
0.491163
0.499484
0.508176
0.517235
0.526657
0.536432
0.546548
0.556983
0.567714
0.578707
0.589925
0.601317
0.612829
0.624393
0.635931
0.647355
0.658565
0.669447
0.679877
0.689717
0.698815
0.707011
0.714131
0.719992
0.724406
0.727178
0.728111
0.727013
0.723695
0.717982
0.709717
0.698765
0.685023
0.668425
0.648946
0.626613
0.601508
0.573771
0.543606
0.511276
0.477109
0.441486
0.404842
0.367648
0.330403
0.293619
0.257803
0.223438
0.190966
0.160773
0.13317
0.108574
0.0869483
0.0680323
0.0520533
0.0388672
0.0282576
0.0199523
0.0136427
0.00900375
0.00571392
0.00347188
0.00200987
0.00110222
0.000568841
0.000274156
0.000122286
4.99492e-05
1.84516e-05
6.07211e-06
1.74884e-06
4.31803e-07
8.86012e-08
1.40144e-08
1.90221e-09
2.37776e-10
-2.28335e-17
-8.24466e-19
-1.3974e-20
-1.63882e-11
)
;

boundaryField
{
    fixedWall
    {
        type            calculated;
        value           uniform 0;
    }
    outlet
    {
        type            calculated;
        value           uniform 0;
    }
    defaultFaces
    {
        type            empty;
    }
}


// ************************************************************************* //
