/*--------------------------------*- C++ -*----------------------------------*\
| =========                 |                                                 |
| \\      /  F ield         | OpenFOAM: The Open Source CFD Toolbox           |
|  \\    /   O peration     | Version:  2406                                  |
|   \\  /    A nd           | Website:  www.openfoam.com                      |
|    \\/     M anipulation  |                                                 |
\*---------------------------------------------------------------------------*/
FoamFile
{
    version     2.0;
    format      ascii;
    arch        "LSB;label=32;scalar=64";
    class       surfaceScalarField;
    location    "7.1";
    object      phi;
}
// * * * * * * * * * * * * * * * * * * * * * * * * * * * * * * * * * * * * * //

dimensions      [1 0 -1 0 0 0 0];

oriented        oriented;

internalField   nonuniform List<scalar> 
999
(
-3.10522e-08
-1.00171e-07
-1.91015e-07
-2.94581e-07
-4.05581e-07
-5.2076e-07
-6.38049e-07
-7.56091e-07
-8.73985e-07
-9.91113e-07
-1.10707e-06
-1.22157e-06
-1.33441e-06
-1.44549e-06
-1.55471e-06
-1.66203e-06
-1.76741e-06
-1.87086e-06
-1.97237e-06
-2.07195e-06
-2.16963e-06
-2.26542e-06
-2.35934e-06
-2.45143e-06
-2.54171e-06
-2.6302e-06
-2.71695e-06
-2.80197e-06
-2.88529e-06
-2.96695e-06
-3.04696e-06
-3.12535e-06
-3.20216e-06
-3.27741e-06
-3.35112e-06
-3.42331e-06
-3.49401e-06
-3.56325e-06
-3.63103e-06
-3.6974e-06
-3.76236e-06
-3.82595e-06
-3.88817e-06
-3.94905e-06
-4.00861e-06
-4.06687e-06
-4.12385e-06
-4.17956e-06
-4.23403e-06
-4.28727e-06
-4.3393e-06
-4.39014e-06
-4.43981e-06
-4.48832e-06
-4.53569e-06
-4.58193e-06
-4.62707e-06
-4.67112e-06
-4.71409e-06
-4.75601e-06
-4.79689e-06
-4.83674e-06
-4.87558e-06
-4.91343e-06
-4.95031e-06
-4.98622e-06
-5.02118e-06
-5.05522e-06
-5.08834e-06
-5.12057e-06
-5.15191e-06
-5.18238e-06
-5.212e-06
-5.24079e-06
-5.26876e-06
-5.29591e-06
-5.32228e-06
-5.34787e-06
-5.3727e-06
-5.39679e-06
-5.42014e-06
-5.44278e-06
-5.46471e-06
-5.48596e-06
-5.50654e-06
-5.52647e-06
-5.54574e-06
-5.56439e-06
-5.58243e-06
-5.59987e-06
-5.61672e-06
-5.633e-06
-5.64872e-06
-5.6639e-06
-5.67855e-06
-5.69268e-06
-5.70631e-06
-5.71944e-06
-5.7321e-06
-5.74429e-06
-5.75603e-06
-5.76733e-06
-5.77821e-06
-5.78866e-06
-5.79872e-06
-5.80839e-06
-5.81767e-06
-5.82659e-06
-5.83515e-06
-5.84336e-06
-5.85124e-06
-5.8588e-06
-5.86604e-06
-5.87298e-06
-5.87963e-06
-5.88599e-06
-5.89209e-06
-5.89793e-06
-5.90352e-06
-5.90888e-06
-5.91402e-06
-5.91889e-06
-5.9235e-06
-5.92786e-06
-5.93203e-06
-5.93602e-06
-5.93988e-06
-5.94353e-06
-5.94701e-06
-5.95033e-06
-5.95349e-06
-5.9565e-06
-5.95935e-06
-5.96207e-06
-5.96466e-06
-5.96711e-06
-5.96944e-06
-5.97165e-06
-5.97374e-06
-5.97573e-06
-5.97761e-06
-5.97939e-06
-5.98108e-06
-5.98268e-06
-5.9842e-06
-5.98563e-06
-5.98698e-06
-5.98826e-06
-5.98947e-06
-5.99061e-06
-5.99168e-06
-5.9927e-06
-5.99366e-06
-5.99457e-06
-5.99542e-06
-5.99622e-06
-5.99698e-06
-5.99769e-06
-5.99836e-06
-5.99899e-06
-5.99959e-06
-6.00015e-06
-6.00067e-06
-6.00116e-06
-6.00163e-06
-6.00206e-06
-6.00247e-06
-6.00285e-06
-6.00321e-06
-6.00355e-06
-6.00386e-06
-6.00416e-06
-6.00444e-06
-6.0047e-06
-6.00494e-06
-6.00517e-06
-6.00538e-06
-6.00558e-06
-6.00577e-06
-6.00594e-06
-6.0061e-06
-6.00626e-06
-6.0064e-06
-6.00653e-06
-6.00666e-06
-6.00678e-06
-6.00689e-06
-6.00699e-06
-6.00708e-06
-6.00717e-06
-6.00725e-06
-6.00733e-06
-6.0074e-06
-6.00747e-06
-6.00753e-06
-6.00759e-06
-6.00765e-06
-6.0077e-06
-6.00775e-06
-6.0078e-06
-6.00784e-06
-6.00788e-06
-6.00791e-06
-6.00795e-06
-6.00798e-06
-6.00801e-06
-6.00804e-06
-6.00807e-06
-6.00809e-06
-6.00812e-06
-6.00814e-06
-6.00816e-06
-6.00818e-06
-6.00819e-06
-6.00821e-06
-6.00822e-06
-6.00824e-06
-6.00825e-06
-6.00826e-06
-6.00827e-06
-6.00828e-06
-6.00829e-06
-6.0083e-06
-6.00831e-06
-6.00832e-06
-6.00832e-06
-6.00833e-06
-6.00834e-06
-6.00834e-06
-6.00835e-06
-6.00835e-06
-6.00835e-06
-6.00836e-06
-6.00836e-06
-6.00836e-06
-6.00836e-06
-6.00836e-06
-6.00836e-06
-6.00836e-06
-6.00836e-06
-6.00836e-06
-6.00836e-06
-6.00836e-06
-6.00836e-06
-6.00835e-06
-6.00835e-06
-6.00835e-06
-6.00835e-06
-6.00834e-06
-6.00834e-06
-6.00833e-06
-6.00833e-06
-6.00832e-06
-6.00832e-06
-6.00831e-06
-6.00831e-06
-6.0083e-06
-6.0083e-06
-6.00829e-06
-6.00828e-06
-6.00827e-06
-6.00827e-06
-6.00826e-06
-6.00825e-06
-6.00824e-06
-6.00824e-06
-6.00823e-06
-6.00822e-06
-6.00821e-06
-6.0082e-06
-6.00819e-06
-6.00818e-06
-6.00817e-06
-6.00816e-06
-6.00815e-06
-6.00814e-06
-6.00813e-06
-6.00812e-06
-6.00811e-06
-6.0081e-06
-6.00809e-06
-6.00808e-06
-6.00807e-06
-6.00806e-06
-6.00805e-06
-6.00804e-06
-6.00803e-06
-6.00802e-06
-6.008e-06
-6.00799e-06
-6.00798e-06
-6.00797e-06
-6.00796e-06
-6.00795e-06
-6.00793e-06
-6.00792e-06
-6.00791e-06
-6.0079e-06
-6.00789e-06
-6.00788e-06
-6.00786e-06
-6.00785e-06
-6.00784e-06
-6.00783e-06
-6.00782e-06
-6.0078e-06
-6.00779e-06
-6.00778e-06
-6.00777e-06
-6.00776e-06
-6.00775e-06
-6.00773e-06
-6.00772e-06
-6.00771e-06
-6.0077e-06
-6.00769e-06
-6.00768e-06
-6.00767e-06
-6.00766e-06
-6.00764e-06
-6.00763e-06
-6.00762e-06
-6.00761e-06
-6.0076e-06
-6.00759e-06
-6.00758e-06
-6.00757e-06
-6.00756e-06
-6.00755e-06
-6.00754e-06
-6.00753e-06
-6.00753e-06
-6.00752e-06
-6.00751e-06
-6.0075e-06
-6.00749e-06
-6.00748e-06
-6.00748e-06
-6.00747e-06
-6.00746e-06
-6.00746e-06
-6.00745e-06
-6.00744e-06
-6.00744e-06
-6.00743e-06
-6.00743e-06
-6.00742e-06
-6.00742e-06
-6.00741e-06
-6.00741e-06
-6.0074e-06
-6.0074e-06
-6.0074e-06
-6.0074e-06
-6.00739e-06
-6.00739e-06
-6.00739e-06
-6.00739e-06
-6.00739e-06
-6.00739e-06
-6.00739e-06
-6.00739e-06
-6.00739e-06
-6.00739e-06
-6.00739e-06
-6.00739e-06
-6.00739e-06
-6.00739e-06
-6.00739e-06
-6.00739e-06
-6.00739e-06
-6.0074e-06
-6.0074e-06
-6.0074e-06
-6.00741e-06
-6.00741e-06
-6.00741e-06
-6.00742e-06
-6.00742e-06
-6.00742e-06
-6.00743e-06
-6.00743e-06
-6.00744e-06
-6.00744e-06
-6.00745e-06
-6.00745e-06
-6.00746e-06
-6.00746e-06
-6.00747e-06
-6.00747e-06
-6.00747e-06
-6.00748e-06
-6.00748e-06
-6.00749e-06
-6.00749e-06
-6.0075e-06
-6.0075e-06
-6.00751e-06
-6.00751e-06
-6.00752e-06
-6.00752e-06
-6.00753e-06
-6.00753e-06
-6.00753e-06
-6.00754e-06
-6.00754e-06
-6.00754e-06
-6.00755e-06
-6.00755e-06
-6.00755e-06
-6.00755e-06
-6.00756e-06
-6.00756e-06
-6.00756e-06
-6.00756e-06
-6.00756e-06
-6.00756e-06
-6.00756e-06
-6.00756e-06
-6.00756e-06
-6.00756e-06
-6.00756e-06
-6.00756e-06
-6.00756e-06
-6.00756e-06
-6.00756e-06
-6.00756e-06
-6.00755e-06
-6.00755e-06
-6.00755e-06
-6.00755e-06
-6.00755e-06
-6.00754e-06
-6.00754e-06
-6.00754e-06
-6.00753e-06
-6.00753e-06
-6.00752e-06
-6.00752e-06
-6.00752e-06
-6.00751e-06
-6.00751e-06
-6.0075e-06
-6.0075e-06
-6.00749e-06
-6.00749e-06
-6.00748e-06
-6.00748e-06
-6.00747e-06
-6.00747e-06
-6.00746e-06
-6.00746e-06
-6.00745e-06
-6.00745e-06
-6.00745e-06
-6.00744e-06
-6.00744e-06
-6.00743e-06
-6.00743e-06
-6.00742e-06
-6.00742e-06
-6.00742e-06
-6.00741e-06
-6.00741e-06
-6.0074e-06
-6.0074e-06
-6.0074e-06
-6.00739e-06
-6.00739e-06
-6.00739e-06
-6.00738e-06
-6.00738e-06
-6.00738e-06
-6.00738e-06
-6.00737e-06
-6.00737e-06
-6.00737e-06
-6.00737e-06
-6.00736e-06
-6.00736e-06
-6.00736e-06
-6.00736e-06
-6.00736e-06
-6.00736e-06
-6.00735e-06
-6.00735e-06
-6.00735e-06
-6.00735e-06
-6.00735e-06
-6.00735e-06
-6.00735e-06
-6.00735e-06
-6.00735e-06
-6.00735e-06
-6.00735e-06
-6.00735e-06
-6.00735e-06
-6.00735e-06
-6.00735e-06
-6.00735e-06
-6.00735e-06
-6.00735e-06
-6.00735e-06
-6.00735e-06
-6.00735e-06
-6.00735e-06
-6.00735e-06
-6.00735e-06
-6.00735e-06
-6.00735e-06
-6.00735e-06
-6.00736e-06
-6.00736e-06
-6.00736e-06
-6.00736e-06
-6.00736e-06
-6.00736e-06
-6.00736e-06
-6.00736e-06
-6.00736e-06
-6.00736e-06
-6.00736e-06
-6.00736e-06
-6.00736e-06
-6.00736e-06
-6.00737e-06
-6.00737e-06
-6.00737e-06
-6.00737e-06
-6.00737e-06
-6.00737e-06
-6.00737e-06
-6.00737e-06
-6.00737e-06
-6.00737e-06
-6.00737e-06
-6.00737e-06
-6.00737e-06
-6.00736e-06
-6.00736e-06
-6.00736e-06
-6.00736e-06
-6.00736e-06
-6.00736e-06
-6.00736e-06
-6.00736e-06
-6.00735e-06
-6.00735e-06
-6.00735e-06
-6.00735e-06
-6.00734e-06
-6.00734e-06
-6.00734e-06
-6.00733e-06
-6.00733e-06
-6.00732e-06
-6.00732e-06
-6.00731e-06
-6.00731e-06
-6.0073e-06
-6.0073e-06
-6.00729e-06
-6.00728e-06
-6.00728e-06
-6.00727e-06
-6.00726e-06
-6.00725e-06
-6.00725e-06
-6.00724e-06
-6.00723e-06
-6.00723e-06
-6.00722e-06
-6.00721e-06
-6.0072e-06
-6.00719e-06
-6.00719e-06
-6.00718e-06
-6.00717e-06
-6.00716e-06
-6.00715e-06
-6.00715e-06
-6.00714e-06
-6.00713e-06
-6.00712e-06
-6.00711e-06
-6.00711e-06
-6.0071e-06
-6.00709e-06
-6.00708e-06
-6.00708e-06
-6.00707e-06
-6.00707e-06
-6.00706e-06
-6.00705e-06
-6.00705e-06
-6.00704e-06
-6.00704e-06
-6.00703e-06
-6.00703e-06
-6.00703e-06
-6.00703e-06
-6.00702e-06
-6.00702e-06
-6.00702e-06
-6.00702e-06
-6.00702e-06
-6.00701e-06
-6.00701e-06
-6.00701e-06
-6.00701e-06
-6.00701e-06
-6.00701e-06
-6.00701e-06
-6.00701e-06
-6.00702e-06
-6.00702e-06
-6.00702e-06
-6.00702e-06
-6.00702e-06
-6.00702e-06
-6.00703e-06
-6.00703e-06
-6.00703e-06
-6.00703e-06
-6.00704e-06
-6.00704e-06
-6.00704e-06
-6.00704e-06
-6.00704e-06
-6.00705e-06
-6.00705e-06
-6.00705e-06
-6.00705e-06
-6.00705e-06
-6.00706e-06
-6.00706e-06
-6.00706e-06
-6.00706e-06
-6.00706e-06
-6.00707e-06
-6.00707e-06
-6.00707e-06
-6.00707e-06
-6.00707e-06
-6.00707e-06
-6.00707e-06
-6.00707e-06
-6.00707e-06
-6.00708e-06
-6.00708e-06
-6.00708e-06
-6.00708e-06
-6.00708e-06
-6.00708e-06
-6.00708e-06
-6.00708e-06
-6.00709e-06
-6.00709e-06
-6.00709e-06
-6.00709e-06
-6.00709e-06
-6.00709e-06
-6.0071e-06
-6.0071e-06
-6.0071e-06
-6.0071e-06
-6.0071e-06
-6.0071e-06
-6.0071e-06
-6.0071e-06
-6.00711e-06
-6.00711e-06
-6.00711e-06
-6.00711e-06
-6.00711e-06
-6.00711e-06
-6.00711e-06
-6.00711e-06
-6.0071e-06
-6.0071e-06
-6.0071e-06
-6.0071e-06
-6.0071e-06
-6.00709e-06
-6.00709e-06
-6.00709e-06
-6.00708e-06
-6.00708e-06
-6.00707e-06
-6.00706e-06
-6.00705e-06
-6.00705e-06
-6.00704e-06
-6.00703e-06
-6.00702e-06
-6.00701e-06
-6.007e-06
-6.00698e-06
-6.00697e-06
-6.00696e-06
-6.00694e-06
-6.00692e-06
-6.00691e-06
-6.00689e-06
-6.00687e-06
-6.00686e-06
-6.00684e-06
-6.00682e-06
-6.0068e-06
-6.00678e-06
-6.00676e-06
-6.00673e-06
-6.00671e-06
-6.00669e-06
-6.00667e-06
-6.00664e-06
-6.00662e-06
-6.0066e-06
-6.00658e-06
-6.00655e-06
-6.00653e-06
-6.00651e-06
-6.00649e-06
-6.00646e-06
-6.00644e-06
-6.00642e-06
-6.0064e-06
-6.00638e-06
-6.00636e-06
-6.00634e-06
-6.00633e-06
-6.00631e-06
-6.0063e-06
-6.00628e-06
-6.00627e-06
-6.00626e-06
-6.00625e-06
-6.00624e-06
-6.00623e-06
-6.00622e-06
-6.00622e-06
-6.00621e-06
-6.00621e-06
-6.00621e-06
-6.00621e-06
-6.00621e-06
-6.00622e-06
-6.00622e-06
-6.00623e-06
-6.00624e-06
-6.00624e-06
-6.00626e-06
-6.00627e-06
-6.00628e-06
-6.00629e-06
-6.00631e-06
-6.00633e-06
-6.00634e-06
-6.00636e-06
-6.00638e-06
-6.0064e-06
-6.00642e-06
-6.00644e-06
-6.00646e-06
-6.00649e-06
-6.00651e-06
-6.00653e-06
-6.00655e-06
-6.00658e-06
-6.0066e-06
-6.00662e-06
-6.00665e-06
-6.00667e-06
-6.00669e-06
-6.00671e-06
-6.00673e-06
-6.00675e-06
-6.00677e-06
-6.00679e-06
-6.00681e-06
-6.00683e-06
-6.00685e-06
-6.00686e-06
-6.00687e-06
-6.00689e-06
-6.0069e-06
-6.00691e-06
-6.00692e-06
-6.00692e-06
-6.00693e-06
-6.00693e-06
-6.00693e-06
-6.00693e-06
-6.00693e-06
-6.00693e-06
-6.00692e-06
-6.00692e-06
-6.00691e-06
-6.0069e-06
-6.00689e-06
-6.00688e-06
-6.00686e-06
-6.00685e-06
-6.00683e-06
-6.00681e-06
-6.00679e-06
-6.00677e-06
-6.00675e-06
-6.00672e-06
-6.0067e-06
-6.00667e-06
-6.00664e-06
-6.00662e-06
-6.00659e-06
-6.00656e-06
-6.00653e-06
-6.0065e-06
-6.00646e-06
-6.00643e-06
-6.0064e-06
-6.00637e-06
-6.00634e-06
-6.00631e-06
-6.00628e-06
-6.00624e-06
-6.00622e-06
-6.00619e-06
-6.00616e-06
-6.00613e-06
-6.0061e-06
-6.00607e-06
-6.00605e-06
-6.00602e-06
-6.006e-06
-6.00598e-06
-6.00596e-06
-6.00594e-06
-6.00592e-06
-6.00591e-06
-6.00589e-06
-6.00588e-06
-6.00586e-06
-6.00585e-06
-6.00584e-06
-6.00583e-06
-6.00583e-06
-6.00582e-06
-6.00582e-06
-6.00581e-06
-6.00581e-06
-6.00581e-06
-6.00581e-06
-6.00581e-06
-6.00581e-06
-6.00582e-06
-6.00582e-06
-6.00582e-06
-6.00583e-06
-6.00583e-06
-6.00584e-06
-6.00585e-06
-6.00585e-06
-6.00586e-06
-6.00587e-06
-6.00587e-06
-6.00588e-06
-6.00588e-06
-6.00589e-06
-6.00589e-06
-6.0059e-06
-6.0059e-06
-6.0059e-06
-6.00591e-06
-6.00591e-06
-6.00591e-06
-6.00591e-06
-6.00591e-06
-6.00591e-06
-6.00591e-06
-6.0059e-06
-6.0059e-06
-6.0059e-06
-6.00589e-06
-6.00589e-06
-6.00588e-06
-6.00587e-06
-6.00587e-06
-6.00586e-06
-6.00585e-06
-6.00585e-06
-6.00584e-06
-6.00583e-06
-6.00583e-06
-6.00582e-06
-6.00582e-06
-6.00581e-06
-6.00582e-06
-6.00582e-06
-6.00583e-06
-6.00584e-06
-6.00586e-06
-6.00589e-06
-6.00592e-06
-6.00597e-06
-6.00604e-06
-6.00612e-06
-6.00622e-06
-6.00634e-06
-6.0065e-06
-6.00669e-06
-6.00692e-06
-6.0072e-06
-6.00754e-06
-6.00794e-06
-6.00843e-06
-6.00901e-06
-6.00971e-06
-6.01054e-06
-6.01151e-06
-6.01267e-06
-6.01404e-06
-6.01565e-06
-6.01755e-06
-6.01976e-06
-6.02236e-06
-6.02539e-06
-6.02893e-06
-6.03304e-06
-6.03781e-06
-6.04335e-06
-6.04975e-06
-6.05714e-06
-6.06565e-06
-6.07544e-06
-6.08667e-06
-6.09955e-06
-6.11426e-06
-6.13105e-06
-6.15016e-06
-6.17188e-06
-6.19651e-06
-6.22438e-06
-6.25586e-06
-6.29134e-06
-6.33125e-06
-6.37603e-06
-6.42619e-06
-6.48225e-06
-6.54477e-06
-6.61435e-06
-6.69163e-06
-6.77728e-06
-6.872e-06
-6.97653e-06
-7.09165e-06
-7.21819e-06
-7.35697e-06
-7.50888e-06
-7.67483e-06
-7.85575e-06
-8.05261e-06
-8.26641e-06
-8.49816e-06
-8.74891e-06
-9.01972e-06
-9.31169e-06
-9.62592e-06
-9.96355e-06
-1.03257e-05
-1.07137e-05
-1.11286e-05
-1.15716e-05
-1.20441e-05
-1.25474e-05
-1.30827e-05
-1.36516e-05
-1.42554e-05
-1.48957e-05
-1.55742e-05
-1.62925e-05
-1.70528e-05
-1.78571e-05
-1.87079e-05
-1.9608e-05
-2.05612e-05
-2.15524e-05
-2.26023e-05
-2.37166e-05
-2.48991e-05
-2.61533e-05
-2.74829e-05
-2.88916e-05
-3.03817e-05
-3.1953e-05
-3.35993e-05
-3.53018e-05
-3.70173e-05
-3.8653e-05
-4.00139e-05
)
;

boundaryField
{
    fixedWall
    {
        type            calculated;
        value           uniform 0;
    }
    outlet
    {
        type            calculated;
        value           uniform -4.06775e-05;
    }
    defaultFaces
    {
        type            empty;
    }
}


// ************************************************************************* //
