/*--------------------------------*- C++ -*----------------------------------*\
| =========                 |                                                 |
| \\      /  F ield         | OpenFOAM: The Open Source CFD Toolbox           |
|  \\    /   O peration     | Version:  2406                                  |
|   \\  /    A nd           | Website:  www.openfoam.com                      |
|    \\/     M anipulation  |                                                 |
\*---------------------------------------------------------------------------*/
FoamFile
{
    version     2.0;
    format      ascii;
    arch        "LSB;label=32;scalar=64";
    class       volScalarField;
    location    "7.1";
    object      Qdot;
}
// * * * * * * * * * * * * * * * * * * * * * * * * * * * * * * * * * * * * * //

dimensions      [1 -1 -3 0 0 0 0];

internalField   nonuniform List<scalar> 
1000
(
-2.34763e-18
-1.34712e-08
-1.77707e-15
1.14133e-08
6.2773e-08
2.83291e-07
1.09435e-06
3.48852e-06
9.5969e-06
2.33385e-05
5.12756e-05
0.000103387
0.000193861
0.000341507
0.000570021
0.000907712
0.00138696
0.00204325
0.00291389
0.00403662
0.00544796
0.0071817
0.00926732
0.0117288
0.0145832
0.0178405
0.0215022
0.0255621
0.0300057
0.0348109
0.0399485
0.0453834
0.0510752
0.0569796
0.0630493
0.0692354
0.0754885
0.0817596
0.0880013
0.0941683
0.100219
0.106114
0.11182
0.117306
0.122547
0.127523
0.132216
0.136615
0.140713
0.144504
0.147989
0.15117
0.154054
0.156648
0.158962
0.161009
0.162801
0.164353
0.165679
0.166796
0.167718
0.168462
0.169042
0.169475
0.169774
0.169955
0.170029
0.170011
0.169913
0.169745
0.169518
0.169242
0.168926
0.168578
0.168205
0.167815
0.167414
0.167006
0.166597
0.166192
0.165793
0.165404
0.165029
0.164668
0.164325
0.164002
0.163698
0.163417
0.163157
0.162921
0.162708
0.162519
0.162354
0.162212
0.162093
0.161998
0.161925
0.161875
0.161846
0.161838
0.161851
0.161883
0.161935
0.162005
0.162092
0.162197
0.162318
0.162454
0.162604
0.162769
0.162947
0.163138
0.163341
0.163555
0.16378
0.164015
0.16426
0.164513
0.164775
0.165046
0.165323
0.165607
0.165897
0.166193
0.166495
0.166803
0.167116
0.167433
0.167756
0.168083
0.168413
0.168747
0.169085
0.169425
0.169769
0.170115
0.170464
0.170815
0.171168
0.171524
0.171881
0.17224
0.172601
0.172964
0.173328
0.173694
0.174061
0.17443
0.1748
0.175171
0.175543
0.175917
0.176292
0.176667
0.177044
0.177422
0.177801
0.178181
0.178562
0.178944
0.179327
0.179711
0.180095
0.180481
0.180868
0.181256
0.181645
0.182035
0.182425
0.182817
0.18321
0.183604
0.183999
0.184395
0.184792
0.18519
0.185589
0.185989
0.18639
0.186792
0.187196
0.1876
0.188006
0.188413
0.188821
0.18923
0.18964
0.190052
0.190465
0.190879
0.191294
0.19171
0.192128
0.192544
0.192962
0.193384
0.193807
0.194231
0.194657
0.195084
0.195512
0.195941
0.196371
0.196803
0.197237
0.197671
0.198107
0.198544
0.198983
0.199423
0.199864
0.200307
0.200751
0.201196
0.201643
0.202091
0.202541
0.202992
0.203445
0.203899
0.204354
0.204811
0.205269
0.205729
0.20619
0.206653
0.207117
0.207582
0.208049
0.208518
0.208988
0.20946
0.209933
0.210407
0.210884
0.211361
0.21184
0.212321
0.212803
0.213287
0.213773
0.21426
0.214748
0.215238
0.21573
0.216223
0.216718
0.217215
0.217713
0.218212
0.218714
0.219217
0.219721
0.220227
0.220735
0.221245
0.221756
0.222269
0.222784
0.2233
0.223818
0.224337
0.224859
0.225382
0.225907
0.226433
0.226962
0.227492
0.228024
0.228557
0.229093
0.22963
0.230169
0.230709
0.231252
0.231797
0.232343
0.232891
0.233441
0.233993
0.234546
0.235102
0.235659
0.236219
0.23678
0.237343
0.237908
0.238476
0.239045
0.239616
0.240189
0.240763
0.24134
0.241919
0.2425
0.243083
0.243668
0.244255
0.244842
0.245429
0.246023
0.246618
0.247215
0.247815
0.248417
0.24902
0.249626
0.250234
0.250845
0.251457
0.252072
0.252688
0.253307
0.253928
0.254552
0.255177
0.255805
0.256435
0.257068
0.257702
0.258339
0.258978
0.25962
0.260263
0.260909
0.261558
0.262209
0.262862
0.263517
0.264175
0.264836
0.265498
0.266163
0.266831
0.267501
0.268173
0.268848
0.269526
0.270206
0.270888
0.271573
0.272261
0.272951
0.273643
0.274339
0.275037
0.275737
0.27644
0.277146
0.277854
0.278565
0.279279
0.279996
0.280715
0.281437
0.282162
0.282889
0.283619
0.284353
0.285089
0.285827
0.286569
0.287314
0.288061
0.288812
0.289565
0.290321
0.29108
0.291843
0.292608
0.293376
0.294148
0.294922
0.2957
0.296481
0.297264
0.298051
0.298842
0.299635
0.300431
0.301231
0.302034
0.302841
0.30365
0.304463
0.305279
0.306099
0.306922
0.307748
0.308578
0.309411
0.310247
0.311087
0.311931
0.312778
0.313628
0.314482
0.31534
0.316201
0.317066
0.317934
0.318806
0.319682
0.320561
0.321444
0.322327
0.323211
0.324106
0.325004
0.325906
0.326811
0.327721
0.328634
0.329551
0.330472
0.331396
0.332324
0.333257
0.334193
0.335133
0.336077
0.337025
0.337976
0.338932
0.339892
0.340856
0.341823
0.342795
0.343771
0.344751
0.345736
0.346724
0.347716
0.348713
0.349714
0.350719
0.351728
0.352742
0.35376
0.354782
0.355808
0.356839
0.357873
0.358905
0.359949
0.360997
0.36205
0.363108
0.36417
0.365237
0.366308
0.367384
0.368465
0.36955
0.370641
0.371736
0.372836
0.37394
0.37505
0.376164
0.377284
0.378408
0.379537
0.380672
0.381811
0.382956
0.384106
0.38526
0.38642
0.387586
0.388756
0.389932
0.391113
0.3923
0.393492
0.394689
0.395892
0.397101
0.398315
0.399534
0.40076
0.40199
0.403227
0.404469
0.405717
0.406971
0.408231
0.409496
0.410768
0.412045
0.413329
0.414618
0.415914
0.417215
0.418523
0.419837
0.421157
0.422484
0.423816
0.425155
0.426501
0.427852
0.429211
0.430575
0.431947
0.433324
0.434709
0.4361
0.437498
0.438903
0.440314
0.441725
0.443141
0.444573
0.446012
0.447458
0.448911
0.450372
0.451839
0.453313
0.454795
0.456284
0.45778
0.459284
0.460795
0.462314
0.46384
0.465374
0.466916
0.468465
0.470022
0.471587
0.473159
0.47474
0.476329
0.477925
0.47953
0.481143
0.482764
0.484394
0.486031
0.487677
0.489332
0.490995
0.492667
0.494347
0.496036
0.497733
0.499439
0.501155
0.502879
0.504611
0.506353
0.508104
0.509864
0.511634
0.513412
0.5152
0.516997
0.518803
0.520619
0.522444
0.524279
0.526124
0.527977
0.529827
0.531699
0.533581
0.535474
0.537376
0.539289
0.541212
0.543145
0.545088
0.547041
0.549005
0.55098
0.552965
0.55496
0.556966
0.558983
0.561011
0.56305
0.565099
0.56716
0.569232
0.571315
0.573409
0.575515
0.577632
0.57976
0.581901
0.584053
0.586217
0.588393
0.590581
0.592781
0.594994
0.597219
0.599456
0.601706
0.603968
0.606244
0.608532
0.610833
0.613147
0.615474
0.617815
0.620169
0.622537
0.624918
0.627313
0.629722
0.632145
0.634582
0.637033
0.639499
0.641979
0.644473
0.646982
0.649506
0.652045
0.654599
0.657168
0.659752
0.662352
0.664967
0.667597
0.670243
0.672897
0.675556
0.678251
0.680962
0.683689
0.686432
0.689193
0.691969
0.694763
0.697573
0.7004
0.703245
0.706107
0.708986
0.711882
0.714797
0.717729
0.720679
0.723647
0.726634
0.729639
0.732663
0.735705
0.738767
0.741847
0.744947
0.748066
0.751205
0.754364
0.757543
0.760742
0.763961
0.767201
0.770462
0.773743
0.777046
0.78037
0.783716
0.787083
0.790473
0.793884
0.797318
0.800775
0.804254
0.807756
0.811282
0.814831
0.818403
0.822
0.82562
0.829265
0.832934
0.836628
0.840347
0.844091
0.84786
0.851655
0.855475
0.859322
0.863194
0.867094
0.871019
0.874972
0.878951
0.882958
0.886992
0.891054
0.895144
0.899262
0.903408
0.907583
0.911786
0.916019
0.92028
0.924571
0.928887
0.933204
0.93758
0.941987
0.946425
0.950895
0.955396
0.959928
0.964492
0.969088
0.973715
0.978376
0.983068
0.987794
0.992553
0.997345
1.00217
1.00703
1.01193
1.01686
1.02182
1.02682
1.03186
1.03693
1.04204
1.04719
1.05237
1.05759
1.06285
1.06815
1.07349
1.07887
1.08428
1.08974
1.09524
1.10078
1.10636
1.11199
1.11766
1.12337
1.12912
1.13492
1.14077
1.14666
1.15259
1.15858
1.16461
1.17068
1.17681
1.18298
1.18921
1.19548
1.20181
1.20819
1.21461
1.22109
1.22763
1.23421
1.24084
1.24749
1.25424
1.26105
1.26791
1.27483
1.28181
1.28884
1.29594
1.3031
1.31031
1.31759
1.32493
1.33234
1.3398
1.34734
1.35493
1.36259
1.37032
1.37811
1.38597
1.3939
1.4019
1.40997
1.4181
1.42631
1.43459
1.44295
1.45138
1.45988
1.46845
1.4771
1.48583
1.49464
1.50352
1.51248
1.52153
1.53065
1.53985
1.54914
1.55851
1.56796
1.5775
1.58713
1.59684
1.60664
1.61653
1.62651
1.63658
1.64674
1.65699
1.66734
1.67778
1.68832
1.69896
1.70969
1.72053
1.73146
1.7425
1.75364
1.76487
1.77614
1.7876
1.79917
1.81085
1.82264
1.83455
1.84657
1.85871
1.87097
1.88334
1.89584
1.90846
1.92121
1.93408
1.94708
1.96021
1.97347
1.98687
2.0004
2.01407
2.02788
2.04183
2.05593
2.07017
2.08456
2.0991
2.1138
2.12865
2.14365
2.15882
2.17415
2.18964
2.2053
2.22112
2.23712
2.2533
2.26965
2.28618
2.3029
2.3198
2.33679
2.35395
2.37143
2.3891
2.40696
2.42503
2.4433
2.46177
2.48045
2.49935
2.51846
2.53779
2.55735
2.57713
2.59714
2.61738
2.63786
2.65857
2.67954
2.70075
2.72221
2.74393
2.76591
2.78815
2.81066
2.83345
2.85651
2.87986
2.9035
2.92742
2.95165
2.97619
3.00102
3.02601
3.05147
3.07722
3.10331
3.12972
3.15646
3.18355
3.21098
3.23877
3.26691
3.29541
3.32429
3.35354
3.38317
3.41319
3.44361
3.47443
3.50566
3.5373
3.56937
3.60186
3.6348
3.66818
3.70201
3.73631
3.77108
3.80633
3.84207
3.87832
3.91508
3.95237
3.99021
4.02862
4.06761
4.10721
4.14745
4.18836
4.22999
4.27238
4.31558
4.35968
4.40474
4.45087
4.49817
4.54677
4.59685
4.64857
4.70215
4.75785
4.81593
4.87674
4.94063
5.00804
5.07942
5.15529
5.23623
5.32284
5.4158
5.51577
5.62347
5.73959
5.86479
5.99965
6.1446
6.2999
6.46551
6.641
6.8254
7.01711
7.21366
7.41158
7.60617
7.79134
7.95943
8.10114
8.20556
8.2603
8.25194
8.16669
7.99139
7.71491
7.32976
6.83397
6.23286
5.54045
4.77996
3.98309
3.18774
2.43404
1.76211
1.20283
0.756137
0.434078
0.223306
0.100449
0.0382453
0.0117935
0.00277042
0.000454261
4.56828e-05
2.30635e-06
4.08002e-08
-3.01838e-16
0
)
;

boundaryField
{
    fixedWall
    {
        type            calculated;
        value           uniform 0;
    }
    outlet
    {
        type            calculated;
        value           uniform 0;
    }
    defaultFaces
    {
        type            empty;
    }
}


// ************************************************************************* //
