/*--------------------------------*- C++ -*----------------------------------*\
| =========                 |                                                 |
| \\      /  F ield         | OpenFOAM: The Open Source CFD Toolbox           |
|  \\    /   O peration     | Version:  2406                                  |
|   \\  /    A nd           | Website:  www.openfoam.com                      |
|    \\/     M anipulation  |                                                 |
\*---------------------------------------------------------------------------*/
FoamFile
{
    version     2.0;
    format      ascii;
    arch        "LSB;label=32;scalar=64";
    class       volVectorField;
    location    "7.1";
    object      U;
}
// * * * * * * * * * * * * * * * * * * * * * * * * * * * * * * * * * * * * * //

dimensions      [0 1 -1 0 0 0 0];

internalField   nonuniform List<vector> 
1000
(
(-1.73496e-06 0 0)
(-7.99583e-06 0 0)
(-2.00263e-05 0 0)
(-3.62971e-05 0 0)
(-5.57078e-05 0 0)
(-7.76057e-05 0 0)
(-0.000101553 0 0)
(-0.000127197 0 0)
(-0.00015425 0 0)
(-0.000182474 0 0)
(-0.000211672 0 0)
(-0.000241679 0 0)
(-0.000272355 0 0)
(-0.000303579 0 0)
(-0.000335248 0 0)
(-0.000367271 0 0)
(-0.000399567 0 0)
(-0.000432066 0 0)
(-0.000464705 0 0)
(-0.000497428 0 0)
(-0.000530183 0 0)
(-0.000562926 0 0)
(-0.000595615 0 0)
(-0.000628212 0 0)
(-0.000660682 0 0)
(-0.000692997 0 0)
(-0.000725124 0 0)
(-0.00075704 0 0)
(-0.00078872 0 0)
(-0.000820142 0 0)
(-0.000851285 0 0)
(-0.000882132 0 0)
(-0.000912664 0 0)
(-0.000942867 0 0)
(-0.000972726 0 0)
(-0.00100223 0 0)
(-0.00103136 0 0)
(-0.00106011 0 0)
(-0.00108847 0 0)
(-0.00111644 0 0)
(-0.00114399 0 0)
(-0.00117113 0 0)
(-0.00119785 0 0)
(-0.00122414 0 0)
(-0.00125 0 0)
(-0.00127543 0 0)
(-0.00130041 0 0)
(-0.00132495 0 0)
(-0.00134904 0 0)
(-0.00137269 0 0)
(-0.00139589 0 0)
(-0.00141863 0 0)
(-0.00144093 0 0)
(-0.00146277 0 0)
(-0.00148417 0 0)
(-0.00150511 0 0)
(-0.00152561 0 0)
(-0.00154565 0 0)
(-0.00156526 0 0)
(-0.00158442 0 0)
(-0.00160314 0 0)
(-0.00162142 0 0)
(-0.00163927 0 0)
(-0.0016567 0 0)
(-0.00167369 0 0)
(-0.00169026 0 0)
(-0.00170641 0 0)
(-0.00172215 0 0)
(-0.00173749 0 0)
(-0.00175241 0 0)
(-0.00176694 0 0)
(-0.00178107 0 0)
(-0.00179482 0 0)
(-0.00180818 0 0)
(-0.00182117 0 0)
(-0.00183379 0 0)
(-0.00184604 0 0)
(-0.00185793 0 0)
(-0.00186946 0 0)
(-0.00188065 0 0)
(-0.0018915 0 0)
(-0.00190202 0 0)
(-0.00191221 0 0)
(-0.00192207 0 0)
(-0.00193162 0 0)
(-0.00194087 0 0)
(-0.00194981 0 0)
(-0.00195845 0 0)
(-0.00196681 0 0)
(-0.00197488 0 0)
(-0.00198268 0 0)
(-0.00199021 0 0)
(-0.00199748 0 0)
(-0.00200449 0 0)
(-0.00201125 0 0)
(-0.00201776 0 0)
(-0.00202404 0 0)
(-0.00203009 0 0)
(-0.00203591 0 0)
(-0.00204152 0 0)
(-0.00204691 0 0)
(-0.00205209 0 0)
(-0.00205708 0 0)
(-0.00206187 0 0)
(-0.00206647 0 0)
(-0.00207089 0 0)
(-0.00207513 0 0)
(-0.0020792 0 0)
(-0.0020831 0 0)
(-0.00208684 0 0)
(-0.00209042 0 0)
(-0.00209386 0 0)
(-0.00209714 0 0)
(-0.00210029 0 0)
(-0.0021033 0 0)
(-0.00210618 0 0)
(-0.00210894 0 0)
(-0.00211157 0 0)
(-0.00211409 0 0)
(-0.0021165 0 0)
(-0.0021188 0 0)
(-0.002121 0 0)
(-0.00212308 0 0)
(-0.00212505 0 0)
(-0.00212692 0 0)
(-0.0021287 0 0)
(-0.00213042 0 0)
(-0.00213205 0 0)
(-0.00213361 0 0)
(-0.00213508 0 0)
(-0.00213649 0 0)
(-0.00213783 0 0)
(-0.0021391 0 0)
(-0.00214031 0 0)
(-0.00214145 0 0)
(-0.00214254 0 0)
(-0.00214357 0 0)
(-0.00214454 0 0)
(-0.00214547 0 0)
(-0.00214634 0 0)
(-0.00214717 0 0)
(-0.00214796 0 0)
(-0.0021487 0 0)
(-0.0021494 0 0)
(-0.00215007 0 0)
(-0.00215069 0 0)
(-0.00215129 0 0)
(-0.00215184 0 0)
(-0.00215237 0 0)
(-0.00215287 0 0)
(-0.00215334 0 0)
(-0.00215378 0 0)
(-0.0021542 0 0)
(-0.00215459 0 0)
(-0.00215496 0 0)
(-0.00215531 0 0)
(-0.00215563 0 0)
(-0.00215594 0 0)
(-0.00215623 0 0)
(-0.0021565 0 0)
(-0.00215676 0 0)
(-0.002157 0 0)
(-0.00215722 0 0)
(-0.00215743 0 0)
(-0.00215763 0 0)
(-0.00215782 0 0)
(-0.00215799 0 0)
(-0.00215815 0 0)
(-0.0021583 0 0)
(-0.00215845 0 0)
(-0.00215858 0 0)
(-0.0021587 0 0)
(-0.00215882 0 0)
(-0.00215893 0 0)
(-0.00215903 0 0)
(-0.00215913 0 0)
(-0.00215922 0 0)
(-0.0021593 0 0)
(-0.00215937 0 0)
(-0.00215945 0 0)
(-0.00215951 0 0)
(-0.00215958 0 0)
(-0.00215963 0 0)
(-0.00215969 0 0)
(-0.00215974 0 0)
(-0.00215978 0 0)
(-0.00215983 0 0)
(-0.00215987 0 0)
(-0.00215991 0 0)
(-0.00215994 0 0)
(-0.00215997 0 0)
(-0.00216 0 0)
(-0.00216003 0 0)
(-0.00216006 0 0)
(-0.00216008 0 0)
(-0.0021601 0 0)
(-0.00216012 0 0)
(-0.00216014 0 0)
(-0.00216016 0 0)
(-0.00216018 0 0)
(-0.00216019 0 0)
(-0.0021602 0 0)
(-0.00216022 0 0)
(-0.00216023 0 0)
(-0.00216024 0 0)
(-0.00216025 0 0)
(-0.00216026 0 0)
(-0.00216027 0 0)
(-0.00216027 0 0)
(-0.00216028 0 0)
(-0.00216029 0 0)
(-0.00216029 0 0)
(-0.0021603 0 0)
(-0.0021603 0 0)
(-0.0021603 0 0)
(-0.00216031 0 0)
(-0.00216031 0 0)
(-0.00216031 0 0)
(-0.00216032 0 0)
(-0.00216032 0 0)
(-0.00216032 0 0)
(-0.00216032 0 0)
(-0.00216032 0 0)
(-0.00216032 0 0)
(-0.00216032 0 0)
(-0.00216032 0 0)
(-0.00216032 0 0)
(-0.00216032 0 0)
(-0.00216032 0 0)
(-0.00216032 0 0)
(-0.00216032 0 0)
(-0.00216032 0 0)
(-0.00216032 0 0)
(-0.00216032 0 0)
(-0.00216031 0 0)
(-0.00216031 0 0)
(-0.00216031 0 0)
(-0.0021603 0 0)
(-0.00216031 0 0)
(-0.0021603 0 0)
(-0.0021603 0 0)
(-0.0021603 0 0)
(-0.00216029 0 0)
(-0.0021603 0 0)
(-0.00216029 0 0)
(-0.00216029 0 0)
(-0.00216028 0 0)
(-0.00216028 0 0)
(-0.00216028 0 0)
(-0.00216027 0 0)
(-0.00216027 0 0)
(-0.00216026 0 0)
(-0.00216027 0 0)
(-0.00216026 0 0)
(-0.00216026 0 0)
(-0.00216025 0 0)
(-0.00216025 0 0)
(-0.00216025 0 0)
(-0.00216024 0 0)
(-0.00216024 0 0)
(-0.00216023 0 0)
(-0.00216023 0 0)
(-0.00216022 0 0)
(-0.00216022 0 0)
(-0.00216021 0 0)
(-0.00216021 0 0)
(-0.00216021 0 0)
(-0.0021602 0 0)
(-0.0021602 0 0)
(-0.00216019 0 0)
(-0.00216019 0 0)
(-0.00216018 0 0)
(-0.00216018 0 0)
(-0.00216017 0 0)
(-0.00216017 0 0)
(-0.00216017 0 0)
(-0.00216016 0 0)
(-0.00216016 0 0)
(-0.00216015 0 0)
(-0.00216015 0 0)
(-0.00216014 0 0)
(-0.00216014 0 0)
(-0.00216013 0 0)
(-0.00216013 0 0)
(-0.00216012 0 0)
(-0.00216012 0 0)
(-0.00216011 0 0)
(-0.00216011 0 0)
(-0.00216011 0 0)
(-0.0021601 0 0)
(-0.0021601 0 0)
(-0.00216009 0 0)
(-0.00216009 0 0)
(-0.00216008 0 0)
(-0.00216008 0 0)
(-0.00216007 0 0)
(-0.00216007 0 0)
(-0.00216007 0 0)
(-0.00216006 0 0)
(-0.00216006 0 0)
(-0.00216005 0 0)
(-0.00216005 0 0)
(-0.00216005 0 0)
(-0.00216004 0 0)
(-0.00216004 0 0)
(-0.00216003 0 0)
(-0.00216003 0 0)
(-0.00216002 0 0)
(-0.00216002 0 0)
(-0.00216002 0 0)
(-0.00216001 0 0)
(-0.00216001 0 0)
(-0.00216001 0 0)
(-0.00216 0 0)
(-0.00216 0 0)
(-0.00216 0 0)
(-0.00215999 0 0)
(-0.00215999 0 0)
(-0.00215999 0 0)
(-0.00215998 0 0)
(-0.00215998 0 0)
(-0.00215997 0 0)
(-0.00215997 0 0)
(-0.00215997 0 0)
(-0.00215996 0 0)
(-0.00215997 0 0)
(-0.00215996 0 0)
(-0.00215995 0 0)
(-0.00215996 0 0)
(-0.00215995 0 0)
(-0.00215995 0 0)
(-0.00215995 0 0)
(-0.00215994 0 0)
(-0.00215994 0 0)
(-0.00215994 0 0)
(-0.00215994 0 0)
(-0.00215994 0 0)
(-0.00215994 0 0)
(-0.00215993 0 0)
(-0.00215994 0 0)
(-0.00215993 0 0)
(-0.00215993 0 0)
(-0.00215993 0 0)
(-0.00215993 0 0)
(-0.00215993 0 0)
(-0.00215993 0 0)
(-0.00215993 0 0)
(-0.00215993 0 0)
(-0.00215993 0 0)
(-0.00215992 0 0)
(-0.00215993 0 0)
(-0.00215992 0 0)
(-0.00215993 0 0)
(-0.00215993 0 0)
(-0.00215992 0 0)
(-0.00215993 0 0)
(-0.00215992 0 0)
(-0.00215993 0 0)
(-0.00215993 0 0)
(-0.00215993 0 0)
(-0.00215993 0 0)
(-0.00215993 0 0)
(-0.00215993 0 0)
(-0.00215993 0 0)
(-0.00215993 0 0)
(-0.00215993 0 0)
(-0.00215993 0 0)
(-0.00215994 0 0)
(-0.00215994 0 0)
(-0.00215994 0 0)
(-0.00215994 0 0)
(-0.00215994 0 0)
(-0.00215995 0 0)
(-0.00215994 0 0)
(-0.00215995 0 0)
(-0.00215995 0 0)
(-0.00215995 0 0)
(-0.00215995 0 0)
(-0.00215996 0 0)
(-0.00215996 0 0)
(-0.00215996 0 0)
(-0.00215996 0 0)
(-0.00215996 0 0)
(-0.00215997 0 0)
(-0.00215997 0 0)
(-0.00215997 0 0)
(-0.00215997 0 0)
(-0.00215998 0 0)
(-0.00215998 0 0)
(-0.00215998 0 0)
(-0.00215998 0 0)
(-0.00215998 0 0)
(-0.00215999 0 0)
(-0.00215999 0 0)
(-0.00215999 0 0)
(-0.00215999 0 0)
(-0.00216 0 0)
(-0.00215999 0 0)
(-0.00216 0 0)
(-0.00216 0 0)
(-0.00216 0 0)
(-0.00216 0 0)
(-0.00216001 0 0)
(-0.00216 0 0)
(-0.00216001 0 0)
(-0.00216001 0 0)
(-0.00216001 0 0)
(-0.00216001 0 0)
(-0.00216001 0 0)
(-0.00216001 0 0)
(-0.00216002 0 0)
(-0.00216001 0 0)
(-0.00216002 0 0)
(-0.00216002 0 0)
(-0.00216002 0 0)
(-0.00216002 0 0)
(-0.00216001 0 0)
(-0.00216002 0 0)
(-0.00216001 0 0)
(-0.00216002 0 0)
(-0.00216002 0 0)
(-0.00216001 0 0)
(-0.00216002 0 0)
(-0.00216001 0 0)
(-0.00216002 0 0)
(-0.00216002 0 0)
(-0.00216001 0 0)
(-0.00216002 0 0)
(-0.00216001 0 0)
(-0.00216001 0 0)
(-0.00216001 0 0)
(-0.00216001 0 0)
(-0.00216001 0 0)
(-0.00216 0 0)
(-0.00216001 0 0)
(-0.00216 0 0)
(-0.00216 0 0)
(-0.00216 0 0)
(-0.00216 0 0)
(-0.00216 0 0)
(-0.00216 0 0)
(-0.00215999 0 0)
(-0.00216 0 0)
(-0.00215999 0 0)
(-0.00215999 0 0)
(-0.00215999 0 0)
(-0.00215998 0 0)
(-0.00215999 0 0)
(-0.00215998 0 0)
(-0.00215998 0 0)
(-0.00215998 0 0)
(-0.00215997 0 0)
(-0.00215998 0 0)
(-0.00215997 0 0)
(-0.00215998 0 0)
(-0.00215997 0 0)
(-0.00215997 0 0)
(-0.00215997 0 0)
(-0.00215997 0 0)
(-0.00215997 0 0)
(-0.00215996 0 0)
(-0.00215996 0 0)
(-0.00215996 0 0)
(-0.00215996 0 0)
(-0.00215996 0 0)
(-0.00215996 0 0)
(-0.00215995 0 0)
(-0.00215996 0 0)
(-0.00215996 0 0)
(-0.00215995 0 0)
(-0.00215996 0 0)
(-0.00215995 0 0)
(-0.00215996 0 0)
(-0.00215995 0 0)
(-0.00215995 0 0)
(-0.00215995 0 0)
(-0.00215995 0 0)
(-0.00215995 0 0)
(-0.00215995 0 0)
(-0.00215995 0 0)
(-0.00215994 0 0)
(-0.00215995 0 0)
(-0.00215995 0 0)
(-0.00215994 0 0)
(-0.00215995 0 0)
(-0.00215995 0 0)
(-0.00215995 0 0)
(-0.00215995 0 0)
(-0.00215995 0 0)
(-0.00215994 0 0)
(-0.00215995 0 0)
(-0.00215995 0 0)
(-0.00215995 0 0)
(-0.00215995 0 0)
(-0.00215994 0 0)
(-0.00215995 0 0)
(-0.00215995 0 0)
(-0.00215994 0 0)
(-0.00215995 0 0)
(-0.00215995 0 0)
(-0.00215995 0 0)
(-0.00215995 0 0)
(-0.00215995 0 0)
(-0.00215995 0 0)
(-0.00215995 0 0)
(-0.00215995 0 0)
(-0.00215995 0 0)
(-0.00215995 0 0)
(-0.00215995 0 0)
(-0.00215995 0 0)
(-0.00215995 0 0)
(-0.00215995 0 0)
(-0.00215995 0 0)
(-0.00215995 0 0)
(-0.00215995 0 0)
(-0.00215995 0 0)
(-0.00215995 0 0)
(-0.00215995 0 0)
(-0.00215995 0 0)
(-0.00215995 0 0)
(-0.00215995 0 0)
(-0.00215995 0 0)
(-0.00215995 0 0)
(-0.00215995 0 0)
(-0.00215995 0 0)
(-0.00215995 0 0)
(-0.00215995 0 0)
(-0.00215995 0 0)
(-0.00215995 0 0)
(-0.00215995 0 0)
(-0.00215995 0 0)
(-0.00215995 0 0)
(-0.00215995 0 0)
(-0.00215995 0 0)
(-0.00215995 0 0)
(-0.00215995 0 0)
(-0.00215995 0 0)
(-0.00215995 0 0)
(-0.00215995 0 0)
(-0.00215995 0 0)
(-0.00215995 0 0)
(-0.00215995 0 0)
(-0.00215995 0 0)
(-0.00215995 0 0)
(-0.00215994 0 0)
(-0.00215995 0 0)
(-0.00215994 0 0)
(-0.00215994 0 0)
(-0.00215994 0 0)
(-0.00215994 0 0)
(-0.00215995 0 0)
(-0.00215994 0 0)
(-0.00215994 0 0)
(-0.00215994 0 0)
(-0.00215993 0 0)
(-0.00215994 0 0)
(-0.00215993 0 0)
(-0.00215993 0 0)
(-0.00215993 0 0)
(-0.00215992 0 0)
(-0.00215992 0 0)
(-0.00215992 0 0)
(-0.00215991 0 0)
(-0.00215992 0 0)
(-0.00215991 0 0)
(-0.00215991 0 0)
(-0.00215991 0 0)
(-0.00215991 0 0)
(-0.0021599 0 0)
(-0.0021599 0 0)
(-0.0021599 0 0)
(-0.00215989 0 0)
(-0.0021599 0 0)
(-0.00215989 0 0)
(-0.00215989 0 0)
(-0.00215988 0 0)
(-0.00215988 0 0)
(-0.00215988 0 0)
(-0.00215987 0 0)
(-0.00215987 0 0)
(-0.00215987 0 0)
(-0.00215987 0 0)
(-0.00215986 0 0)
(-0.00215986 0 0)
(-0.00215986 0 0)
(-0.00215986 0 0)
(-0.00215986 0 0)
(-0.00215985 0 0)
(-0.00215985 0 0)
(-0.00215985 0 0)
(-0.00215985 0 0)
(-0.00215984 0 0)
(-0.00215985 0 0)
(-0.00215984 0 0)
(-0.00215984 0 0)
(-0.00215984 0 0)
(-0.00215984 0 0)
(-0.00215984 0 0)
(-0.00215984 0 0)
(-0.00215984 0 0)
(-0.00215983 0 0)
(-0.00215984 0 0)
(-0.00215983 0 0)
(-0.00215983 0 0)
(-0.00215983 0 0)
(-0.00215983 0 0)
(-0.00215983 0 0)
(-0.00215983 0 0)
(-0.00215983 0 0)
(-0.00215984 0 0)
(-0.00215983 0 0)
(-0.00215983 0 0)
(-0.00215984 0 0)
(-0.00215983 0 0)
(-0.00215984 0 0)
(-0.00215984 0 0)
(-0.00215984 0 0)
(-0.00215984 0 0)
(-0.00215984 0 0)
(-0.00215984 0 0)
(-0.00215984 0 0)
(-0.00215984 0 0)
(-0.00215984 0 0)
(-0.00215985 0 0)
(-0.00215984 0 0)
(-0.00215985 0 0)
(-0.00215985 0 0)
(-0.00215985 0 0)
(-0.00215985 0 0)
(-0.00215985 0 0)
(-0.00215985 0 0)
(-0.00215985 0 0)
(-0.00215985 0 0)
(-0.00215985 0 0)
(-0.00215985 0 0)
(-0.00215985 0 0)
(-0.00215985 0 0)
(-0.00215985 0 0)
(-0.00215986 0 0)
(-0.00215986 0 0)
(-0.00215986 0 0)
(-0.00215986 0 0)
(-0.00215986 0 0)
(-0.00215986 0 0)
(-0.00215986 0 0)
(-0.00215986 0 0)
(-0.00215986 0 0)
(-0.00215986 0 0)
(-0.00215986 0 0)
(-0.00215986 0 0)
(-0.00215986 0 0)
(-0.00215986 0 0)
(-0.00215986 0 0)
(-0.00215986 0 0)
(-0.00215986 0 0)
(-0.00215986 0 0)
(-0.00215986 0 0)
(-0.00215986 0 0)
(-0.00215986 0 0)
(-0.00215986 0 0)
(-0.00215986 0 0)
(-0.00215986 0 0)
(-0.00215986 0 0)
(-0.00215986 0 0)
(-0.00215986 0 0)
(-0.00215986 0 0)
(-0.00215986 0 0)
(-0.00215986 0 0)
(-0.00215986 0 0)
(-0.00215986 0 0)
(-0.00215986 0 0)
(-0.00215986 0 0)
(-0.00215986 0 0)
(-0.00215986 0 0)
(-0.00215986 0 0)
(-0.00215986 0 0)
(-0.00215986 0 0)
(-0.00215985 0 0)
(-0.00215986 0 0)
(-0.00215985 0 0)
(-0.00215985 0 0)
(-0.00215985 0 0)
(-0.00215985 0 0)
(-0.00215985 0 0)
(-0.00215984 0 0)
(-0.00215985 0 0)
(-0.00215984 0 0)
(-0.00215984 0 0)
(-0.00215984 0 0)
(-0.00215983 0 0)
(-0.00215984 0 0)
(-0.00215982 0 0)
(-0.00215983 0 0)
(-0.00215982 0 0)
(-0.00215981 0 0)
(-0.00215982 0 0)
(-0.00215981 0 0)
(-0.0021598 0 0)
(-0.0021598 0 0)
(-0.00215979 0 0)
(-0.00215979 0 0)
(-0.00215978 0 0)
(-0.00215978 0 0)
(-0.00215977 0 0)
(-0.00215976 0 0)
(-0.00215976 0 0)
(-0.00215975 0 0)
(-0.00215974 0 0)
(-0.00215974 0 0)
(-0.00215973 0 0)
(-0.00215972 0 0)
(-0.00215972 0 0)
(-0.00215971 0 0)
(-0.0021597 0 0)
(-0.00215969 0 0)
(-0.00215968 0 0)
(-0.00215968 0 0)
(-0.00215967 0 0)
(-0.00215966 0 0)
(-0.00215966 0 0)
(-0.00215965 0 0)
(-0.00215964 0 0)
(-0.00215963 0 0)
(-0.00215963 0 0)
(-0.00215962 0 0)
(-0.00215961 0 0)
(-0.00215961 0 0)
(-0.0021596 0 0)
(-0.0021596 0 0)
(-0.00215959 0 0)
(-0.00215958 0 0)
(-0.00215958 0 0)
(-0.00215958 0 0)
(-0.00215957 0 0)
(-0.00215957 0 0)
(-0.00215956 0 0)
(-0.00215956 0 0)
(-0.00215956 0 0)
(-0.00215956 0 0)
(-0.00215956 0 0)
(-0.00215955 0 0)
(-0.00215956 0 0)
(-0.00215956 0 0)
(-0.00215956 0 0)
(-0.00215957 0 0)
(-0.00215956 0 0)
(-0.00215957 0 0)
(-0.00215957 0 0)
(-0.00215957 0 0)
(-0.00215958 0 0)
(-0.00215958 0 0)
(-0.00215958 0 0)
(-0.00215959 0 0)
(-0.00215959 0 0)
(-0.0021596 0 0)
(-0.00215961 0 0)
(-0.00215961 0 0)
(-0.00215962 0 0)
(-0.00215962 0 0)
(-0.00215963 0 0)
(-0.00215964 0 0)
(-0.00215965 0 0)
(-0.00215966 0 0)
(-0.00215966 0 0)
(-0.00215967 0 0)
(-0.00215968 0 0)
(-0.00215969 0 0)
(-0.00215969 0 0)
(-0.0021597 0 0)
(-0.00215971 0 0)
(-0.00215972 0 0)
(-0.00215972 0 0)
(-0.00215973 0 0)
(-0.00215974 0 0)
(-0.00215975 0 0)
(-0.00215975 0 0)
(-0.00215976 0 0)
(-0.00215977 0 0)
(-0.00215977 0 0)
(-0.00215978 0 0)
(-0.00215978 0 0)
(-0.00215979 0 0)
(-0.00215979 0 0)
(-0.00215979 0 0)
(-0.0021598 0 0)
(-0.0021598 0 0)
(-0.0021598 0 0)
(-0.0021598 0 0)
(-0.0021598 0 0)
(-0.0021598 0 0)
(-0.0021598 0 0)
(-0.0021598 0 0)
(-0.0021598 0 0)
(-0.0021598 0 0)
(-0.00215979 0 0)
(-0.00215979 0 0)
(-0.00215979 0 0)
(-0.00215978 0 0)
(-0.00215978 0 0)
(-0.00215977 0 0)
(-0.00215977 0 0)
(-0.00215976 0 0)
(-0.00215975 0 0)
(-0.00215975 0 0)
(-0.00215974 0 0)
(-0.00215973 0 0)
(-0.00215972 0 0)
(-0.00215971 0 0)
(-0.0021597 0 0)
(-0.00215969 0 0)
(-0.00215968 0 0)
(-0.00215967 0 0)
(-0.00215966 0 0)
(-0.00215965 0 0)
(-0.00215963 0 0)
(-0.00215962 0 0)
(-0.00215961 0 0)
(-0.0021596 0 0)
(-0.00215959 0 0)
(-0.00215958 0 0)
(-0.00215956 0 0)
(-0.00215955 0 0)
(-0.00215954 0 0)
(-0.00215953 0 0)
(-0.00215952 0 0)
(-0.00215951 0 0)
(-0.0021595 0 0)
(-0.00215949 0 0)
(-0.00215948 0 0)
(-0.00215947 0 0)
(-0.00215946 0 0)
(-0.00215945 0 0)
(-0.00215944 0 0)
(-0.00215943 0 0)
(-0.00215943 0 0)
(-0.00215942 0 0)
(-0.00215941 0 0)
(-0.00215941 0 0)
(-0.0021594 0 0)
(-0.00215939 0 0)
(-0.0021594 0 0)
(-0.00215938 0 0)
(-0.00215939 0 0)
(-0.00215938 0 0)
(-0.00215938 0 0)
(-0.00215938 0 0)
(-0.00215937 0 0)
(-0.00215938 0 0)
(-0.00215937 0 0)
(-0.00215937 0 0)
(-0.00215938 0 0)
(-0.00215937 0 0)
(-0.00215938 0 0)
(-0.00215938 0 0)
(-0.00215938 0 0)
(-0.00215938 0 0)
(-0.00215938 0 0)
(-0.00215939 0 0)
(-0.00215938 0 0)
(-0.00215939 0 0)
(-0.00215939 0 0)
(-0.00215939 0 0)
(-0.0021594 0 0)
(-0.0021594 0 0)
(-0.0021594 0 0)
(-0.0021594 0 0)
(-0.0021594 0 0)
(-0.00215941 0 0)
(-0.00215941 0 0)
(-0.00215941 0 0)
(-0.00215941 0 0)
(-0.00215941 0 0)
(-0.00215941 0 0)
(-0.00215941 0 0)
(-0.00215941 0 0)
(-0.00215941 0 0)
(-0.00215941 0 0)
(-0.00215941 0 0)
(-0.00215941 0 0)
(-0.00215941 0 0)
(-0.00215941 0 0)
(-0.0021594 0 0)
(-0.0021594 0 0)
(-0.0021594 0 0)
(-0.0021594 0 0)
(-0.00215939 0 0)
(-0.00215939 0 0)
(-0.00215939 0 0)
(-0.00215938 0 0)
(-0.00215938 0 0)
(-0.00215938 0 0)
(-0.00215937 0 0)
(-0.00215937 0 0)
(-0.00215937 0 0)
(-0.00215936 0 0)
(-0.00215936 0 0)
(-0.00215936 0 0)
(-0.00215936 0 0)
(-0.00215936 0 0)
(-0.00215936 0 0)
(-0.00215937 0 0)
(-0.00215938 0 0)
(-0.00215939 0 0)
(-0.0021594 0 0)
(-0.00215942 0 0)
(-0.00215944 0 0)
(-0.00215947 0 0)
(-0.00215951 0 0)
(-0.00215956 0 0)
(-0.00215961 0 0)
(-0.00215968 0 0)
(-0.00215977 0 0)
(-0.00215987 0 0)
(-0.00216 0 0)
(-0.00216015 0 0)
(-0.00216033 0 0)
(-0.00216055 0 0)
(-0.0021608 0 0)
(-0.00216111 0 0)
(-0.00216147 0 0)
(-0.00216189 0 0)
(-0.00216239 0 0)
(-0.00216298 0 0)
(-0.00216368 0 0)
(-0.00216449 0 0)
(-0.00216543 0 0)
(-0.00216654 0 0)
(-0.00216782 0 0)
(-0.00216932 0 0)
(-0.00217105 0 0)
(-0.00217305 0 0)
(-0.00217536 0 0)
(-0.00217802 0 0)
(-0.00218109 0 0)
(-0.00218461 0 0)
(-0.00218864 0 0)
(-0.00219324 0 0)
(-0.0021985 0 0)
(-0.00220448 0 0)
(-0.00221128 0 0)
(-0.00221898 0 0)
(-0.0022277 0 0)
(-0.00223754 0 0)
(-0.00224862 0 0)
(-0.00226107 0 0)
(-0.00227503 0 0)
(-0.00229065 0 0)
(-0.00230808 0 0)
(-0.00232748 0 0)
(-0.00234904 0 0)
(-0.00237293 0 0)
(-0.00239935 0 0)
(-0.00242847 0 0)
(-0.00246051 0 0)
(-0.00249567 0 0)
(-0.00253415 0 0)
(-0.00257616 0 0)
(-0.0026219 0 0)
(-0.00267157 0 0)
(-0.00272537 0 0)
(-0.00278347 0 0)
(-0.00284606 0 0)
(-0.00291328 0 0)
(-0.00298527 0 0)
(-0.00306214 0 0)
(-0.00314398 0 0)
(-0.00323083 0 0)
(-0.00332271 0 0)
(-0.0034196 0 0)
(-0.00352141 0 0)
(-0.00362803 0 0)
(-0.00373926 0 0)
(-0.00385485 0 0)
(-0.00397448 0 0)
(-0.00409775 0 0)
(-0.00422418 0 0)
(-0.00435319 0 0)
(-0.00448411 0 0)
(-0.00461616 0 0)
(-0.00474844 0 0)
(-0.00487994 0 0)
(-0.00500951 0 0)
(-0.00513583 0 0)
(-0.00525773 0 0)
(-0.00537373 0 0)
(-0.00548085 0 0)
(-0.005576 0 0)
(-0.00565734 0 0)
(-0.00572297 0 0)
(-0.00577029 0 0)
(-0.0057943 0 0)
(-0.00579144 0 0)
(-0.00575535 0 0)
(-0.00567925 0 0)
(-0.00555713 0 0)
(-0.00538149 0 0)
(-0.00514267 0 0)
(-0.00480602 0 0)
(-0.00430001 0 0)
(-0.0037173 0 0)
)
;

boundaryField
{
    fixedWall
    {
        type            fixedValue;
        value           uniform (0 0 0);
    }
    outlet
    {
        type            pressureInletOutletVelocity;
        value           uniform (-0.0037173 0 0);
    }
    defaultFaces
    {
        type            empty;
    }
}


// ************************************************************************* //
