/*--------------------------------*- C++ -*----------------------------------*\
| =========                 |                                                 |
| \\      /  F ield         | OpenFOAM: The Open Source CFD Toolbox           |
|  \\    /   O peration     | Version:  2406                                  |
|   \\  /    A nd           | Website:  www.openfoam.com                      |
|    \\/     M anipulation  |                                                 |
\*---------------------------------------------------------------------------*/
FoamFile
{
    version     2.0;
    format      ascii;
    arch        "LSB;label=32;scalar=64";
    class       volScalarField;
    location    "11";
    object      O2;
}
// * * * * * * * * * * * * * * * * * * * * * * * * * * * * * * * * * * * * * //

dimensions      [0 0 0 0 0 0 0];

internalField   nonuniform List<scalar> 
1000
(
1.11343e-06
1.11165e-06
1.10841e-06
1.10395e-06
1.09843e-06
1.09199e-06
1.08474e-06
1.07677e-06
1.06817e-06
1.05898e-06
1.04928e-06
1.03912e-06
1.02853e-06
1.01755e-06
1.00623e-06
9.94595e-07
9.82674e-07
9.70497e-07
9.58088e-07
9.45472e-07
9.3267e-07
9.19705e-07
9.06596e-07
8.93361e-07
8.80019e-07
8.66587e-07
8.53081e-07
8.39517e-07
8.2591e-07
8.12276e-07
7.98629e-07
7.84982e-07
7.7135e-07
7.57745e-07
7.4418e-07
7.30669e-07
7.17224e-07
7.03855e-07
6.90575e-07
6.77396e-07
6.64327e-07
6.5138e-07
6.38564e-07
6.25889e-07
6.13364e-07
6.00998e-07
5.88799e-07
5.76774e-07
5.64932e-07
5.53277e-07
5.41817e-07
5.30558e-07
5.19503e-07
5.08658e-07
4.98027e-07
4.87613e-07
4.77419e-07
4.67447e-07
4.57699e-07
4.48178e-07
4.38882e-07
4.29814e-07
4.20974e-07
4.1236e-07
4.03972e-07
3.95809e-07
3.8787e-07
3.80153e-07
3.72656e-07
3.65376e-07
3.58312e-07
3.51459e-07
3.44815e-07
3.38377e-07
3.32142e-07
3.26105e-07
3.20264e-07
3.14614e-07
3.09152e-07
3.03873e-07
2.98774e-07
2.9385e-07
2.89097e-07
2.84512e-07
2.80089e-07
2.75825e-07
2.71716e-07
2.67757e-07
2.63945e-07
2.60275e-07
2.56743e-07
2.53345e-07
2.50077e-07
2.46935e-07
2.43916e-07
2.41015e-07
2.38229e-07
2.35554e-07
2.32987e-07
2.30524e-07
2.28161e-07
2.25896e-07
2.23725e-07
2.21644e-07
2.19651e-07
2.17743e-07
2.15916e-07
2.14167e-07
2.12495e-07
2.10896e-07
2.09367e-07
2.07907e-07
2.06511e-07
2.05179e-07
2.03907e-07
2.02694e-07
2.01536e-07
2.00433e-07
1.99382e-07
1.9838e-07
1.97427e-07
1.96519e-07
1.95656e-07
1.94835e-07
1.94056e-07
1.93315e-07
1.92612e-07
1.91946e-07
1.91314e-07
1.90715e-07
1.90148e-07
1.89612e-07
1.89105e-07
1.88626e-07
1.88174e-07
1.87748e-07
1.87347e-07
1.8697e-07
1.86615e-07
1.86282e-07
1.85969e-07
1.85677e-07
1.85404e-07
1.85149e-07
1.84911e-07
1.8469e-07
1.84485e-07
1.84295e-07
1.8412e-07
1.83959e-07
1.83812e-07
1.83677e-07
1.83554e-07
1.83443e-07
1.83343e-07
1.83253e-07
1.83174e-07
1.83105e-07
1.83044e-07
1.82993e-07
1.8295e-07
1.82915e-07
1.82888e-07
1.82868e-07
1.82855e-07
1.82848e-07
1.82848e-07
1.82854e-07
1.82866e-07
1.82883e-07
1.82906e-07
1.82933e-07
1.82966e-07
1.83003e-07
1.83044e-07
1.83089e-07
1.83138e-07
1.83191e-07
1.83248e-07
1.83308e-07
1.83371e-07
1.83437e-07
1.83507e-07
1.83579e-07
1.83653e-07
1.83731e-07
1.8381e-07
1.83892e-07
1.83976e-07
1.84062e-07
1.8415e-07
1.8424e-07
1.84332e-07
1.84426e-07
1.84521e-07
1.84618e-07
1.84716e-07
1.84816e-07
1.84916e-07
1.85019e-07
1.85122e-07
1.85226e-07
1.85332e-07
1.85439e-07
1.85546e-07
1.85655e-07
1.85764e-07
1.85875e-07
1.85986e-07
1.86098e-07
1.86211e-07
1.86324e-07
1.86438e-07
1.86553e-07
1.86668e-07
1.86784e-07
1.86901e-07
1.87018e-07
1.87136e-07
1.87254e-07
1.87372e-07
1.87491e-07
1.87611e-07
1.87731e-07
1.87851e-07
1.87972e-07
1.88093e-07
1.88214e-07
1.88336e-07
1.88458e-07
1.8858e-07
1.88703e-07
1.88826e-07
1.88949e-07
1.89073e-07
1.89197e-07
1.89321e-07
1.89445e-07
1.89569e-07
1.89694e-07
1.89819e-07
1.89944e-07
1.9007e-07
1.90196e-07
1.90321e-07
1.90447e-07
1.90574e-07
1.907e-07
1.90827e-07
1.90954e-07
1.91081e-07
1.91208e-07
1.91335e-07
1.91462e-07
1.91589e-07
1.91717e-07
1.91845e-07
1.91974e-07
1.92102e-07
1.92231e-07
1.92359e-07
1.92488e-07
1.92617e-07
1.92746e-07
1.92875e-07
1.93005e-07
1.93134e-07
1.93264e-07
1.93394e-07
1.93524e-07
1.93654e-07
1.93784e-07
1.93914e-07
1.94045e-07
1.94176e-07
1.94306e-07
1.94437e-07
1.94568e-07
1.947e-07
1.94831e-07
1.94962e-07
1.95094e-07
1.95226e-07
1.95358e-07
1.9549e-07
1.95622e-07
1.95754e-07
1.95887e-07
1.96019e-07
1.96152e-07
1.96285e-07
1.96418e-07
1.96551e-07
1.96684e-07
1.96818e-07
1.96951e-07
1.97085e-07
1.97219e-07
1.97353e-07
1.97487e-07
1.9762e-07
1.97755e-07
1.97889e-07
1.98024e-07
1.98159e-07
1.98294e-07
1.98429e-07
1.98565e-07
1.987e-07
1.98836e-07
1.98972e-07
1.99108e-07
1.99244e-07
1.9938e-07
1.99517e-07
1.99653e-07
1.9979e-07
1.99927e-07
2.00064e-07
2.00201e-07
2.00339e-07
2.00476e-07
2.00614e-07
2.00752e-07
2.0089e-07
2.01028e-07
2.01167e-07
2.01305e-07
2.01444e-07
2.01583e-07
2.01722e-07
2.01861e-07
2.02001e-07
2.0214e-07
2.0228e-07
2.0242e-07
2.0256e-07
2.02701e-07
2.02841e-07
2.02982e-07
2.03123e-07
2.03264e-07
2.03405e-07
2.03547e-07
2.03689e-07
2.0383e-07
2.03973e-07
2.04115e-07
2.04257e-07
2.044e-07
2.04543e-07
2.04686e-07
2.04829e-07
2.04972e-07
2.05116e-07
2.0526e-07
2.05404e-07
2.05548e-07
2.05693e-07
2.05837e-07
2.05982e-07
2.06127e-07
2.06272e-07
2.06418e-07
2.06564e-07
2.0671e-07
2.06856e-07
2.07002e-07
2.07149e-07
2.07295e-07
2.07442e-07
2.0759e-07
2.07737e-07
2.07885e-07
2.08032e-07
2.0818e-07
2.08329e-07
2.08477e-07
2.08626e-07
2.08775e-07
2.08924e-07
2.09074e-07
2.09223e-07
2.09373e-07
2.09523e-07
2.09673e-07
2.09824e-07
2.09975e-07
2.10126e-07
2.10277e-07
2.10428e-07
2.1058e-07
2.10732e-07
2.10884e-07
2.11036e-07
2.11189e-07
2.11341e-07
2.11494e-07
2.11648e-07
2.11801e-07
2.11955e-07
2.12109e-07
2.12263e-07
2.12417e-07
2.12572e-07
2.12727e-07
2.12882e-07
2.13037e-07
2.13193e-07
2.13348e-07
2.13505e-07
2.13661e-07
2.13817e-07
2.13974e-07
2.14131e-07
2.14288e-07
2.14445e-07
2.14603e-07
2.14761e-07
2.14919e-07
2.15077e-07
2.15236e-07
2.15395e-07
2.15554e-07
2.15713e-07
2.15873e-07
2.16033e-07
2.16193e-07
2.16353e-07
2.16513e-07
2.16674e-07
2.16835e-07
2.16996e-07
2.17157e-07
2.17319e-07
2.17481e-07
2.17643e-07
2.17806e-07
2.17968e-07
2.18131e-07
2.18294e-07
2.18458e-07
2.18621e-07
2.18785e-07
2.18949e-07
2.19113e-07
2.19278e-07
2.19443e-07
2.19608e-07
2.19773e-07
2.19939e-07
2.20105e-07
2.20271e-07
2.20437e-07
2.20603e-07
2.2077e-07
2.20937e-07
2.21105e-07
2.21272e-07
2.2144e-07
2.21608e-07
2.21776e-07
2.21945e-07
2.22114e-07
2.22283e-07
2.22452e-07
2.22622e-07
2.22791e-07
2.22962e-07
2.23132e-07
2.23303e-07
2.23473e-07
2.23645e-07
2.23816e-07
2.23988e-07
2.2416e-07
2.24332e-07
2.24504e-07
2.24677e-07
2.2485e-07
2.25023e-07
2.25197e-07
2.25371e-07
2.25545e-07
2.25719e-07
2.25894e-07
2.26069e-07
2.26244e-07
2.26419e-07
2.26595e-07
2.26771e-07
2.26947e-07
2.27124e-07
2.27301e-07
2.27478e-07
2.27655e-07
2.27833e-07
2.28011e-07
2.28189e-07
2.28367e-07
2.28546e-07
2.28725e-07
2.28905e-07
2.29084e-07
2.29264e-07
2.29444e-07
2.29625e-07
2.29805e-07
2.29987e-07
2.30168e-07
2.3035e-07
2.30531e-07
2.30714e-07
2.30896e-07
2.31079e-07
2.31262e-07
2.31445e-07
2.31629e-07
2.31813e-07
2.31997e-07
2.32182e-07
2.32367e-07
2.32552e-07
2.32737e-07
2.32923e-07
2.33109e-07
2.33295e-07
2.33482e-07
2.33669e-07
2.33856e-07
2.34043e-07
2.34231e-07
2.34419e-07
2.34608e-07
2.34797e-07
2.34986e-07
2.35175e-07
2.35365e-07
2.35554e-07
2.35745e-07
2.35935e-07
2.36126e-07
2.36317e-07
2.36509e-07
2.367e-07
2.36892e-07
2.37085e-07
2.37277e-07
2.3747e-07
2.37664e-07
2.37857e-07
2.38051e-07
2.38246e-07
2.3844e-07
2.38635e-07
2.3883e-07
2.39026e-07
2.39221e-07
2.39418e-07
2.39614e-07
2.39811e-07
2.40008e-07
2.40205e-07
2.40403e-07
2.40601e-07
2.40799e-07
2.40998e-07
2.41197e-07
2.41396e-07
2.41596e-07
2.41796e-07
2.41996e-07
2.42197e-07
2.42398e-07
2.42599e-07
2.42801e-07
2.43003e-07
2.43205e-07
2.43407e-07
2.4361e-07
2.43814e-07
2.44017e-07
2.44221e-07
2.44425e-07
2.4463e-07
2.44835e-07
2.4504e-07
2.45246e-07
2.45452e-07
2.45658e-07
2.45865e-07
2.46072e-07
2.4628e-07
2.46487e-07
2.46695e-07
2.46904e-07
2.47113e-07
2.47322e-07
2.47531e-07
2.47741e-07
2.47951e-07
2.48162e-07
2.48373e-07
2.48584e-07
2.48796e-07
2.49008e-07
2.49221e-07
2.49433e-07
2.49647e-07
2.4986e-07
2.50074e-07
2.50288e-07
2.50503e-07
2.50718e-07
2.50933e-07
2.51149e-07
2.51365e-07
2.51582e-07
2.51799e-07
2.52016e-07
2.52234e-07
2.52452e-07
2.5267e-07
2.52887e-07
2.53107e-07
2.53326e-07
2.53546e-07
2.53767e-07
2.53988e-07
2.54209e-07
2.5443e-07
2.54652e-07
2.54875e-07
2.55098e-07
2.55321e-07
2.55544e-07
2.55768e-07
2.55993e-07
2.56218e-07
2.56443e-07
2.56668e-07
2.56894e-07
2.57121e-07
2.57348e-07
2.57575e-07
2.57803e-07
2.58031e-07
2.58259e-07
2.58488e-07
2.58717e-07
2.58947e-07
2.59177e-07
2.59407e-07
2.59638e-07
2.5987e-07
2.60101e-07
2.60334e-07
2.60566e-07
2.60799e-07
2.61033e-07
2.61266e-07
2.61501e-07
2.61735e-07
2.6197e-07
2.62206e-07
2.62442e-07
2.62678e-07
2.62915e-07
2.63152e-07
2.63389e-07
2.63627e-07
2.63866e-07
2.64105e-07
2.64344e-07
2.64583e-07
2.64822e-07
2.65062e-07
2.65303e-07
2.65544e-07
2.65786e-07
2.66028e-07
2.66271e-07
2.66514e-07
2.66757e-07
2.67001e-07
2.67245e-07
2.6749e-07
2.67735e-07
2.67981e-07
2.68227e-07
2.68473e-07
2.6872e-07
2.68968e-07
2.69215e-07
2.69463e-07
2.69712e-07
2.69961e-07
2.70211e-07
2.70461e-07
2.70711e-07
2.70962e-07
2.71213e-07
2.71465e-07
2.71717e-07
2.7197e-07
2.72223e-07
2.72476e-07
2.7273e-07
2.72985e-07
2.7324e-07
2.73495e-07
2.73751e-07
2.74007e-07
2.74264e-07
2.74521e-07
2.74779e-07
2.75037e-07
2.75296e-07
2.75555e-07
2.75815e-07
2.76075e-07
2.76336e-07
2.76597e-07
2.76859e-07
2.77121e-07
2.77383e-07
2.77647e-07
2.7791e-07
2.78174e-07
2.78439e-07
2.78704e-07
2.7897e-07
2.79236e-07
2.79503e-07
2.7977e-07
2.80038e-07
2.80307e-07
2.80576e-07
2.80845e-07
2.81115e-07
2.81386e-07
2.81657e-07
2.81929e-07
2.82201e-07
2.82473e-07
2.82745e-07
2.83019e-07
2.83293e-07
2.83567e-07
2.83842e-07
2.84118e-07
2.84395e-07
2.84672e-07
2.84949e-07
2.85228e-07
2.85507e-07
2.85786e-07
2.86066e-07
2.86347e-07
2.86628e-07
2.86909e-07
2.87192e-07
2.87475e-07
2.87758e-07
2.88042e-07
2.88327e-07
2.88612e-07
2.88898e-07
2.89185e-07
2.89472e-07
2.8976e-07
2.90048e-07
2.90337e-07
2.90626e-07
2.90916e-07
2.91207e-07
2.91499e-07
2.91791e-07
2.92083e-07
2.92376e-07
2.9267e-07
2.92965e-07
2.9326e-07
2.93556e-07
2.93852e-07
2.94149e-07
2.94447e-07
2.94745e-07
2.95044e-07
2.95344e-07
2.95644e-07
2.95945e-07
2.96247e-07
2.96549e-07
2.96852e-07
2.97156e-07
2.97461e-07
2.97766e-07
2.98072e-07
2.98379e-07
2.98687e-07
2.98996e-07
2.99305e-07
2.99615e-07
2.99927e-07
3.00239e-07
3.00552e-07
3.00866e-07
3.01181e-07
3.01497e-07
3.01814e-07
3.02133e-07
3.02452e-07
3.02773e-07
3.03095e-07
3.03419e-07
3.03744e-07
3.0407e-07
3.04398e-07
3.04728e-07
3.0506e-07
3.05393e-07
3.05729e-07
3.06067e-07
3.06407e-07
3.06749e-07
3.07094e-07
3.07441e-07
3.07792e-07
3.08145e-07
3.08502e-07
3.08863e-07
3.09227e-07
3.09595e-07
3.09967e-07
3.10344e-07
3.10726e-07
3.11113e-07
3.11506e-07
3.11904e-07
3.12309e-07
3.12721e-07
3.1314e-07
3.13567e-07
3.14003e-07
3.14447e-07
3.14901e-07
3.15365e-07
3.15841e-07
3.16328e-07
3.16828e-07
3.17341e-07
3.17868e-07
3.18411e-07
3.18971e-07
3.19548e-07
3.20144e-07
3.2076e-07
3.21397e-07
3.22057e-07
3.22742e-07
3.23453e-07
3.24191e-07
3.24959e-07
3.25759e-07
3.26593e-07
3.27462e-07
3.28369e-07
3.29317e-07
3.30309e-07
3.31346e-07
3.32432e-07
3.3357e-07
3.34763e-07
3.36015e-07
3.37329e-07
3.38708e-07
3.40158e-07
3.41682e-07
3.43285e-07
3.4497e-07
3.46744e-07
3.48611e-07
3.50576e-07
3.52646e-07
3.54826e-07
3.57122e-07
3.59541e-07
3.62089e-07
3.64774e-07
3.67603e-07
3.70583e-07
3.73723e-07
3.77032e-07
3.80516e-07
3.84187e-07
3.88052e-07
3.92123e-07
3.96408e-07
4.00918e-07
4.05665e-07
4.10658e-07
4.1591e-07
4.21432e-07
4.27237e-07
4.33336e-07
4.39743e-07
4.4647e-07
4.53531e-07
4.60939e-07
4.68708e-07
4.76852e-07
4.85384e-07
4.94319e-07
5.03671e-07
5.13454e-07
5.23682e-07
5.34369e-07
5.45528e-07
5.57172e-07
5.69315e-07
5.81968e-07
5.95143e-07
6.08851e-07
6.23102e-07
6.37904e-07
6.53264e-07
6.6919e-07
6.85684e-07
7.0275e-07
7.20387e-07
7.38593e-07
7.57365e-07
7.76693e-07
7.96568e-07
8.16976e-07
8.37898e-07
8.59312e-07
8.81193e-07
9.0351e-07
9.26227e-07
9.49303e-07
9.72692e-07
9.96342e-07
1.0202e-06
1.04419e-06
1.06825e-06
1.09231e-06
1.11628e-06
1.14006e-06
1.16358e-06
1.18672e-06
1.20939e-06
1.23146e-06
1.25282e-06
1.27335e-06
1.29293e-06
1.31142e-06
1.32869e-06
1.34462e-06
1.35906e-06
1.37189e-06
1.38297e-06
1.39217e-06
1.39936e-06
1.40441e-06
1.40718e-06
1.4076e-06
1.40554e-06
1.40091e-06
1.39359e-06
1.38351e-06
1.37058e-06
1.35474e-06
1.33592e-06
1.31407e-06
1.28917e-06
1.26116e-06
1.23005e-06
1.19583e-06
1.1585e-06
1.11809e-06
1.07464e-06
1.02821e-06
9.78862e-07
9.26698e-07
8.71833e-07
8.14408e-07
7.54592e-07
6.92585e-07
6.28622e-07
5.6298e-07
4.95982e-07
4.28002e-07
3.59477e-07
2.90908e-07
2.22878e-07
1.56051e-07
9.11862e-08
2.91365e-08
)
;

boundaryField
{
    fixedWall
    {
        type            zeroGradient;
    }
    outlet
    {
        type            inletOutlet;
        inletValue      uniform 0;
        value           uniform 0;
    }
    defaultFaces
    {
        type            empty;
    }
}


// ************************************************************************* //
