/*--------------------------------*- C++ -*----------------------------------*\
| =========                 |                                                 |
| \\      /  F ield         | OpenFOAM: The Open Source CFD Toolbox           |
|  \\    /   O peration     | Version:  2406                                  |
|   \\  /    A nd           | Website:  www.openfoam.com                      |
|    \\/     M anipulation  |                                                 |
\*---------------------------------------------------------------------------*/
FoamFile
{
    version     2.0;
    format      ascii;
    arch        "LSB;label=32;scalar=64";
    class       surfaceScalarField;
    location    "11";
    object      phi;
}
// * * * * * * * * * * * * * * * * * * * * * * * * * * * * * * * * * * * * * //

dimensions      [1 0 -1 0 0 0 0];

oriented        oriented;

internalField   nonuniform List<scalar> 
999
(
-1.5936e-08
-5.33593e-08
-1.04438e-07
-1.64387e-07
-2.3015e-07
-2.99706e-07
-3.71686e-07
-4.45126e-07
-5.19359e-07
-5.93889e-07
-6.68363e-07
-7.4253e-07
-8.16189e-07
-8.89205e-07
-9.61471e-07
-1.03292e-06
-1.10349e-06
-1.17314e-06
-1.24184e-06
-1.30959e-06
-1.37637e-06
-1.44218e-06
-1.507e-06
-1.57086e-06
-1.63375e-06
-1.69567e-06
-1.75665e-06
-1.81668e-06
-1.87577e-06
-1.93394e-06
-1.9912e-06
-2.04756e-06
-2.10303e-06
-2.15762e-06
-2.21134e-06
-2.26421e-06
-2.31624e-06
-2.36743e-06
-2.4178e-06
-2.46736e-06
-2.51611e-06
-2.56408e-06
-2.61126e-06
-2.65768e-06
-2.70333e-06
-2.74823e-06
-2.79239e-06
-2.83581e-06
-2.87851e-06
-2.9205e-06
-2.96177e-06
-3.00235e-06
-3.04224e-06
-3.08145e-06
-3.11999e-06
-3.15785e-06
-3.19506e-06
-3.23162e-06
-3.26754e-06
-3.30282e-06
-3.33748e-06
-3.37151e-06
-3.40493e-06
-3.43775e-06
-3.46996e-06
-3.50158e-06
-3.53262e-06
-3.56308e-06
-3.59296e-06
-3.62229e-06
-3.65105e-06
-3.67927e-06
-3.70694e-06
-3.73407e-06
-3.76066e-06
-3.78674e-06
-3.81229e-06
-3.83734e-06
-3.86187e-06
-3.88591e-06
-3.90946e-06
-3.93252e-06
-3.9551e-06
-3.9772e-06
-3.99884e-06
-4.02002e-06
-4.04074e-06
-4.06101e-06
-4.08084e-06
-4.10024e-06
-4.11921e-06
-4.13774e-06
-4.15587e-06
-4.17358e-06
-4.19088e-06
-4.20779e-06
-4.2243e-06
-4.24043e-06
-4.25617e-06
-4.27154e-06
-4.28654e-06
-4.30117e-06
-4.31545e-06
-4.32938e-06
-4.34296e-06
-4.3562e-06
-4.36911e-06
-4.38169e-06
-4.39395e-06
-4.40589e-06
-4.41752e-06
-4.42884e-06
-4.43987e-06
-4.4506e-06
-4.46104e-06
-4.4712e-06
-4.48108e-06
-4.4907e-06
-4.50004e-06
-4.50912e-06
-4.51795e-06
-4.52653e-06
-4.53486e-06
-4.54296e-06
-4.55081e-06
-4.55844e-06
-4.56585e-06
-4.57303e-06
-4.58e-06
-4.58676e-06
-4.59331e-06
-4.59967e-06
-4.60582e-06
-4.61179e-06
-4.61757e-06
-4.62317e-06
-4.62859e-06
-4.63384e-06
-4.63891e-06
-4.64383e-06
-4.64858e-06
-4.65318e-06
-4.65763e-06
-4.66193e-06
-4.66608e-06
-4.6701e-06
-4.67398e-06
-4.67772e-06
-4.68134e-06
-4.68483e-06
-4.6882e-06
-4.69145e-06
-4.69459e-06
-4.69761e-06
-4.70052e-06
-4.70333e-06
-4.70603e-06
-4.70864e-06
-4.71115e-06
-4.71356e-06
-4.71588e-06
-4.71811e-06
-4.72025e-06
-4.72233e-06
-4.72433e-06
-4.72626e-06
-4.72809e-06
-4.72985e-06
-4.73154e-06
-4.73317e-06
-4.73475e-06
-4.73626e-06
-4.7377e-06
-4.73909e-06
-4.74042e-06
-4.74171e-06
-4.74294e-06
-4.74412e-06
-4.74525e-06
-4.74633e-06
-4.74737e-06
-4.74836e-06
-4.74931e-06
-4.75022e-06
-4.75109e-06
-4.75192e-06
-4.75272e-06
-4.75348e-06
-4.7542e-06
-4.7549e-06
-4.75557e-06
-4.7562e-06
-4.75681e-06
-4.75738e-06
-4.75794e-06
-4.75847e-06
-4.75897e-06
-4.75945e-06
-4.75991e-06
-4.76034e-06
-4.76076e-06
-4.76116e-06
-4.76154e-06
-4.7619e-06
-4.76224e-06
-4.76257e-06
-4.76288e-06
-4.76317e-06
-4.76345e-06
-4.76372e-06
-4.76397e-06
-4.76422e-06
-4.76445e-06
-4.76466e-06
-4.76487e-06
-4.76507e-06
-4.76526e-06
-4.76543e-06
-4.7656e-06
-4.76576e-06
-4.76591e-06
-4.76605e-06
-4.76619e-06
-4.76632e-06
-4.76644e-06
-4.76655e-06
-4.76666e-06
-4.76676e-06
-4.76686e-06
-4.76695e-06
-4.76703e-06
-4.76711e-06
-4.76719e-06
-4.76726e-06
-4.76733e-06
-4.76739e-06
-4.76745e-06
-4.76751e-06
-4.76756e-06
-4.76761e-06
-4.76766e-06
-4.7677e-06
-4.76774e-06
-4.76778e-06
-4.76782e-06
-4.76785e-06
-4.76788e-06
-4.76791e-06
-4.76794e-06
-4.76796e-06
-4.76798e-06
-4.768e-06
-4.76802e-06
-4.76804e-06
-4.76806e-06
-4.76807e-06
-4.76809e-06
-4.7681e-06
-4.76811e-06
-4.76812e-06
-4.76813e-06
-4.76814e-06
-4.76815e-06
-4.76816e-06
-4.76816e-06
-4.76817e-06
-4.76817e-06
-4.76818e-06
-4.76818e-06
-4.76818e-06
-4.76818e-06
-4.76818e-06
-4.76819e-06
-4.76819e-06
-4.76819e-06
-4.76819e-06
-4.76818e-06
-4.76818e-06
-4.76818e-06
-4.76818e-06
-4.76818e-06
-4.76817e-06
-4.76817e-06
-4.76817e-06
-4.76816e-06
-4.76816e-06
-4.76815e-06
-4.76815e-06
-4.76814e-06
-4.76814e-06
-4.76813e-06
-4.76813e-06
-4.76812e-06
-4.76812e-06
-4.76811e-06
-4.76811e-06
-4.7681e-06
-4.7681e-06
-4.76809e-06
-4.76809e-06
-4.76808e-06
-4.76807e-06
-4.76807e-06
-4.76806e-06
-4.76806e-06
-4.76805e-06
-4.76805e-06
-4.76804e-06
-4.76803e-06
-4.76803e-06
-4.76802e-06
-4.76802e-06
-4.76801e-06
-4.768e-06
-4.768e-06
-4.76799e-06
-4.76799e-06
-4.76798e-06
-4.76798e-06
-4.76797e-06
-4.76797e-06
-4.76796e-06
-4.76796e-06
-4.76795e-06
-4.76795e-06
-4.76794e-06
-4.76794e-06
-4.76793e-06
-4.76793e-06
-4.76793e-06
-4.76792e-06
-4.76792e-06
-4.76791e-06
-4.76791e-06
-4.7679e-06
-4.7679e-06
-4.7679e-06
-4.76789e-06
-4.76789e-06
-4.76789e-06
-4.76789e-06
-4.76788e-06
-4.76788e-06
-4.76788e-06
-4.76788e-06
-4.76787e-06
-4.76787e-06
-4.76787e-06
-4.76787e-06
-4.76787e-06
-4.76786e-06
-4.76786e-06
-4.76786e-06
-4.76786e-06
-4.76786e-06
-4.76786e-06
-4.76786e-06
-4.76786e-06
-4.76785e-06
-4.76785e-06
-4.76785e-06
-4.76785e-06
-4.76785e-06
-4.76785e-06
-4.76785e-06
-4.76785e-06
-4.76785e-06
-4.76785e-06
-4.76785e-06
-4.76785e-06
-4.76785e-06
-4.76785e-06
-4.76785e-06
-4.76785e-06
-4.76785e-06
-4.76785e-06
-4.76785e-06
-4.76785e-06
-4.76785e-06
-4.76785e-06
-4.76785e-06
-4.76785e-06
-4.76785e-06
-4.76786e-06
-4.76786e-06
-4.76786e-06
-4.76786e-06
-4.76786e-06
-4.76786e-06
-4.76786e-06
-4.76786e-06
-4.76786e-06
-4.76786e-06
-4.76786e-06
-4.76786e-06
-4.76787e-06
-4.76787e-06
-4.76787e-06
-4.76787e-06
-4.76787e-06
-4.76787e-06
-4.76788e-06
-4.76788e-06
-4.76788e-06
-4.76788e-06
-4.76788e-06
-4.76788e-06
-4.76788e-06
-4.76788e-06
-4.76788e-06
-4.76788e-06
-4.76788e-06
-4.76788e-06
-4.76788e-06
-4.76789e-06
-4.76788e-06
-4.76789e-06
-4.76789e-06
-4.76789e-06
-4.76788e-06
-4.76789e-06
-4.76789e-06
-4.76789e-06
-4.76789e-06
-4.76789e-06
-4.76789e-06
-4.76789e-06
-4.76789e-06
-4.76789e-06
-4.76789e-06
-4.76789e-06
-4.76789e-06
-4.76789e-06
-4.76789e-06
-4.76789e-06
-4.76789e-06
-4.76789e-06
-4.76789e-06
-4.76789e-06
-4.76789e-06
-4.76789e-06
-4.76789e-06
-4.76789e-06
-4.76789e-06
-4.76789e-06
-4.76789e-06
-4.76789e-06
-4.76789e-06
-4.76789e-06
-4.76789e-06
-4.76789e-06
-4.76789e-06
-4.76789e-06
-4.76789e-06
-4.76789e-06
-4.76789e-06
-4.76788e-06
-4.76788e-06
-4.76789e-06
-4.76788e-06
-4.76788e-06
-4.76788e-06
-4.76788e-06
-4.76788e-06
-4.76788e-06
-4.76788e-06
-4.76788e-06
-4.76788e-06
-4.76788e-06
-4.76788e-06
-4.76788e-06
-4.76788e-06
-4.76788e-06
-4.76788e-06
-4.76788e-06
-4.76788e-06
-4.76788e-06
-4.76788e-06
-4.76788e-06
-4.76788e-06
-4.76788e-06
-4.76788e-06
-4.76788e-06
-4.76788e-06
-4.76788e-06
-4.76788e-06
-4.76788e-06
-4.76788e-06
-4.76787e-06
-4.76787e-06
-4.76787e-06
-4.76787e-06
-4.76787e-06
-4.76787e-06
-4.76787e-06
-4.76787e-06
-4.76787e-06
-4.76787e-06
-4.76787e-06
-4.76787e-06
-4.76787e-06
-4.76787e-06
-4.76787e-06
-4.76787e-06
-4.76787e-06
-4.76787e-06
-4.76787e-06
-4.76787e-06
-4.76787e-06
-4.76787e-06
-4.76787e-06
-4.76787e-06
-4.76787e-06
-4.76787e-06
-4.76787e-06
-4.76787e-06
-4.76787e-06
-4.76787e-06
-4.76787e-06
-4.76787e-06
-4.76787e-06
-4.76787e-06
-4.76786e-06
-4.76786e-06
-4.76786e-06
-4.76786e-06
-4.76786e-06
-4.76786e-06
-4.76786e-06
-4.76786e-06
-4.76786e-06
-4.76786e-06
-4.76785e-06
-4.76785e-06
-4.76785e-06
-4.76785e-06
-4.76785e-06
-4.76785e-06
-4.76785e-06
-4.76785e-06
-4.76785e-06
-4.76785e-06
-4.76785e-06
-4.76784e-06
-4.76784e-06
-4.76784e-06
-4.76784e-06
-4.76784e-06
-4.76784e-06
-4.76784e-06
-4.76784e-06
-4.76783e-06
-4.76783e-06
-4.76783e-06
-4.76783e-06
-4.76783e-06
-4.76783e-06
-4.76783e-06
-4.76783e-06
-4.76783e-06
-4.76782e-06
-4.76782e-06
-4.76782e-06
-4.76782e-06
-4.76782e-06
-4.76782e-06
-4.76782e-06
-4.76782e-06
-4.76781e-06
-4.76781e-06
-4.76781e-06
-4.76781e-06
-4.76781e-06
-4.76781e-06
-4.76781e-06
-4.76781e-06
-4.76781e-06
-4.76781e-06
-4.7678e-06
-4.7678e-06
-4.7678e-06
-4.7678e-06
-4.7678e-06
-4.7678e-06
-4.7678e-06
-4.7678e-06
-4.7678e-06
-4.7678e-06
-4.7678e-06
-4.7678e-06
-4.7678e-06
-4.7678e-06
-4.7678e-06
-4.7678e-06
-4.7678e-06
-4.7678e-06
-4.7678e-06
-4.7678e-06
-4.7678e-06
-4.7678e-06
-4.7678e-06
-4.7678e-06
-4.7678e-06
-4.7678e-06
-4.7678e-06
-4.7678e-06
-4.7678e-06
-4.7678e-06
-4.7678e-06
-4.7678e-06
-4.7678e-06
-4.7678e-06
-4.7678e-06
-4.7678e-06
-4.7678e-06
-4.7678e-06
-4.7678e-06
-4.7678e-06
-4.76781e-06
-4.76781e-06
-4.76781e-06
-4.76781e-06
-4.76781e-06
-4.76781e-06
-4.76781e-06
-4.76781e-06
-4.76781e-06
-4.76781e-06
-4.76781e-06
-4.76781e-06
-4.76781e-06
-4.76781e-06
-4.76781e-06
-4.76781e-06
-4.76781e-06
-4.76781e-06
-4.76781e-06
-4.76781e-06
-4.76781e-06
-4.76781e-06
-4.76781e-06
-4.76781e-06
-4.76781e-06
-4.76781e-06
-4.76782e-06
-4.76781e-06
-4.76781e-06
-4.76781e-06
-4.76781e-06
-4.76781e-06
-4.76781e-06
-4.76781e-06
-4.76781e-06
-4.76781e-06
-4.76781e-06
-4.76781e-06
-4.76781e-06
-4.76781e-06
-4.76781e-06
-4.76781e-06
-4.76781e-06
-4.7678e-06
-4.7678e-06
-4.7678e-06
-4.7678e-06
-4.7678e-06
-4.7678e-06
-4.7678e-06
-4.76779e-06
-4.76779e-06
-4.76779e-06
-4.76779e-06
-4.76779e-06
-4.76779e-06
-4.76778e-06
-4.76778e-06
-4.76778e-06
-4.76778e-06
-4.76778e-06
-4.76777e-06
-4.76777e-06
-4.76777e-06
-4.76777e-06
-4.76776e-06
-4.76776e-06
-4.76776e-06
-4.76776e-06
-4.76775e-06
-4.76775e-06
-4.76775e-06
-4.76775e-06
-4.76775e-06
-4.76774e-06
-4.76774e-06
-4.76774e-06
-4.76773e-06
-4.76773e-06
-4.76773e-06
-4.76773e-06
-4.76773e-06
-4.76772e-06
-4.76772e-06
-4.76772e-06
-4.76772e-06
-4.76771e-06
-4.76771e-06
-4.76771e-06
-4.76771e-06
-4.76771e-06
-4.7677e-06
-4.7677e-06
-4.7677e-06
-4.7677e-06
-4.7677e-06
-4.7677e-06
-4.7677e-06
-4.7677e-06
-4.7677e-06
-4.7677e-06
-4.7677e-06
-4.7677e-06
-4.76769e-06
-4.76769e-06
-4.76769e-06
-4.76769e-06
-4.76769e-06
-4.76769e-06
-4.76769e-06
-4.7677e-06
-4.7677e-06
-4.7677e-06
-4.7677e-06
-4.7677e-06
-4.7677e-06
-4.7677e-06
-4.7677e-06
-4.7677e-06
-4.76771e-06
-4.76771e-06
-4.76771e-06
-4.76771e-06
-4.76772e-06
-4.76772e-06
-4.76772e-06
-4.76772e-06
-4.76773e-06
-4.76773e-06
-4.76773e-06
-4.76774e-06
-4.76774e-06
-4.76774e-06
-4.76775e-06
-4.76775e-06
-4.76776e-06
-4.76776e-06
-4.76776e-06
-4.76777e-06
-4.76777e-06
-4.76778e-06
-4.76778e-06
-4.76779e-06
-4.76779e-06
-4.7678e-06
-4.76781e-06
-4.76781e-06
-4.76782e-06
-4.76783e-06
-4.76783e-06
-4.76784e-06
-4.76785e-06
-4.76786e-06
-4.76787e-06
-4.76788e-06
-4.76789e-06
-4.7679e-06
-4.76791e-06
-4.76792e-06
-4.76794e-06
-4.76795e-06
-4.76797e-06
-4.76799e-06
-4.768e-06
-4.76802e-06
-4.76805e-06
-4.76807e-06
-4.7681e-06
-4.76812e-06
-4.76815e-06
-4.76819e-06
-4.76822e-06
-4.76826e-06
-4.7683e-06
-4.76835e-06
-4.7684e-06
-4.76845e-06
-4.76851e-06
-4.76857e-06
-4.76864e-06
-4.76871e-06
-4.76879e-06
-4.76888e-06
-4.76897e-06
-4.76908e-06
-4.76919e-06
-4.76931e-06
-4.76944e-06
-4.76958e-06
-4.76973e-06
-4.7699e-06
-4.77008e-06
-4.77027e-06
-4.77048e-06
-4.7707e-06
-4.77095e-06
-4.77121e-06
-4.77149e-06
-4.7718e-06
-4.77213e-06
-4.77248e-06
-4.77286e-06
-4.77327e-06
-4.77372e-06
-4.77419e-06
-4.77471e-06
-4.77526e-06
-4.77585e-06
-4.77648e-06
-4.77717e-06
-4.7779e-06
-4.77868e-06
-4.77952e-06
-4.78042e-06
-4.78139e-06
-4.78242e-06
-4.78352e-06
-4.78471e-06
-4.78597e-06
-4.78732e-06
-4.78876e-06
-4.79029e-06
-4.79193e-06
-4.79368e-06
-4.79555e-06
-4.79754e-06
-4.79965e-06
-4.80191e-06
-4.8043e-06
-4.80685e-06
-4.80956e-06
-4.81244e-06
-4.81549e-06
-4.81874e-06
-4.82218e-06
-4.82583e-06
-4.8297e-06
-4.8338e-06
-4.83815e-06
-4.84274e-06
-4.84761e-06
-4.85275e-06
-4.85819e-06
-4.86393e-06
-4.87e-06
-4.8764e-06
-4.88316e-06
-4.89029e-06
-4.8978e-06
-4.90571e-06
-4.91405e-06
-4.92282e-06
-4.93205e-06
-4.94177e-06
-4.95197e-06
-4.9627e-06
-4.97396e-06
-4.98578e-06
-4.99819e-06
-5.0112e-06
-5.02484e-06
-5.03914e-06
-5.05411e-06
-5.06978e-06
-5.08619e-06
-5.10334e-06
-5.12128e-06
-5.14003e-06
-5.15961e-06
-5.18006e-06
-5.2014e-06
-5.22366e-06
-5.24688e-06
-5.27108e-06
-5.29629e-06
-5.32255e-06
-5.34989e-06
-5.37834e-06
-5.40793e-06
-5.43869e-06
-5.47067e-06
-5.50389e-06
-5.53839e-06
-5.5742e-06
-5.61136e-06
-5.6499e-06
-5.68986e-06
-5.73129e-06
-5.7742e-06
-5.81865e-06
-5.86466e-06
-5.91229e-06
-5.96155e-06
-6.0125e-06
-6.06518e-06
-6.11961e-06
-6.17585e-06
-6.23393e-06
-6.29388e-06
-6.35577e-06
-6.41961e-06
-6.48546e-06
-6.55335e-06
-6.62333e-06
-6.69545e-06
-6.76973e-06
-6.84623e-06
-6.92499e-06
-7.00605e-06
-7.08945e-06
-7.17525e-06
-7.26349e-06
-7.35421e-06
-7.44746e-06
-7.54329e-06
-7.64174e-06
-7.74286e-06
-7.8467e-06
-7.95332e-06
-8.06275e-06
-8.17506e-06
-8.2903e-06
-8.40852e-06
-8.52978e-06
-8.65413e-06
-8.78163e-06
-8.91233e-06
-9.04631e-06
-9.18362e-06
-9.32433e-06
-9.46851e-06
-9.61621e-06
-9.76752e-06
-9.92251e-06
-1.00813e-05
-1.02438e-05
-1.04103e-05
-1.05808e-05
-1.07554e-05
-1.09342e-05
-1.11173e-05
-1.13047e-05
-1.14967e-05
-1.16934e-05
-1.18948e-05
-1.21012e-05
-1.23127e-05
-1.25296e-05
-1.27497e-05
-1.29754e-05
-1.32069e-05
-1.34443e-05
-1.36879e-05
-1.39376e-05
-1.41937e-05
-1.44561e-05
-1.47252e-05
-1.50009e-05
-1.52835e-05
-1.55729e-05
-1.58694e-05
-1.6173e-05
-1.64837e-05
-1.68015e-05
-1.71262e-05
-1.74577e-05
-1.77957e-05
-1.81395e-05
-1.84886e-05
-1.88419e-05
-1.9198e-05
-1.95552e-05
-1.99112e-05
-2.02629e-05
-2.06065e-05
-2.0937e-05
-2.12481e-05
-2.15319e-05
-2.17785e-05
-2.19754e-05
-2.21075e-05
)
;

boundaryField
{
    fixedWall
    {
        type            calculated;
        value           uniform 0;
    }
    outlet
    {
        type            calculated;
        value           uniform -2.21565e-05;
    }
    defaultFaces
    {
        type            empty;
    }
}


// ************************************************************************* //
