/*--------------------------------*- C++ -*----------------------------------*\
| =========                 |                                                 |
| \\      /  F ield         | OpenFOAM: The Open Source CFD Toolbox           |
|  \\    /   O peration     | Version:  2406                                  |
|   \\  /    A nd           | Website:  www.openfoam.com                      |
|    \\/     M anipulation  |                                                 |
\*---------------------------------------------------------------------------*/
FoamFile
{
    version     2.0;
    format      ascii;
    arch        "LSB;label=32;scalar=64";
    class       volScalarField;
    location    "11";
    object      Qdot;
}
// * * * * * * * * * * * * * * * * * * * * * * * * * * * * * * * * * * * * * //

dimensions      [1 -1 -3 0 0 0 0];

internalField   nonuniform List<scalar> 
1000
(
4.98398e-14
-2.39235e-17
-3.06645e-16
-2.51873e-15
1.14133e-08
3.07702e-08
1.209e-07
3.79819e-07
1.0371e-06
2.55502e-06
5.72026e-06
1.18389e-05
2.28579e-05
4.15762e-05
7.17844e-05
0.000118377
0.000187444
0.000286279
0.000423322
0.000608057
0.000850796
0.00116249
0.00155437
0.0020377
0.00262343
0.0033218
0.00414209
0.00509227
0.00617877
0.00740626
0.00877744
0.010293
0.0119515
0.0137493
0.0156811
0.0177391
0.0199141
0.0221952
0.0245701
0.0270254
0.0295465
0.0321186
0.0347263
0.0373538
0.0399859
0.0426073
0.0452035
0.0477604
0.0502651
0.0527055
0.0550705
0.0573502
0.0595362
0.0616209
0.0635981
0.0654631
0.0672119
0.0688421
0.0703521
0.0717414
0.0730105
0.0741606
0.0751939
0.0761132
0.0769217
0.0776234
0.0782226
0.0787239
0.0791323
0.0794528
0.0796907
0.0798515
0.0799404
0.0799628
0.079924
0.0798292
0.0796834
0.0794915
0.0792583
0.0789883
0.0786857
0.0783547
0.0779992
0.0776228
0.0772289
0.0768206
0.0764011
0.0759729
0.0755386
0.0751006
0.074661
0.0742216
0.0737843
0.0733506
0.0729219
0.0724995
0.0720844
0.0716778
0.0712804
0.0708929
0.070516
0.0701501
0.0697958
0.0694534
0.0691232
0.0688053
0.0684998
0.0682069
0.0679266
0.0676589
0.0674036
0.0671608
0.0669302
0.0667116
0.066505
0.06631
0.0661265
0.0659542
0.0657929
0.0656422
0.0655019
0.0653717
0.0652512
0.0651403
0.0650386
0.0649457
0.0648615
0.0647855
0.0647175
0.0646573
0.0646044
0.0645587
0.0645198
0.0644874
0.0644614
0.0644413
0.0644271
0.0644183
0.0644149
0.0644165
0.0644229
0.0644338
0.0644492
0.0644687
0.0644922
0.0645194
0.0645503
0.0645845
0.064622
0.0646626
0.0647061
0.0647523
0.0648012
0.0648525
0.0649062
0.0649621
0.0650201
0.0650801
0.0651419
0.0652055
0.0652708
0.0653377
0.0654061
0.0654759
0.0655468
0.0656189
0.0656923
0.0657667
0.0658424
0.0659192
0.0659968
0.0660753
0.0661547
0.0662347
0.0663156
0.0663971
0.0664789
0.0665617
0.066645
0.0667288
0.0668132
0.066898
0.0669833
0.0670686
0.0671547
0.0672411
0.0673279
0.067415
0.0675025
0.0675902
0.0676783
0.0677666
0.0678551
0.067944
0.068033
0.0681223
0.0682118
0.0683015
0.0683913
0.0684814
0.0685717
0.0686621
0.0687527
0.0688435
0.0689345
0.0690256
0.0691169
0.0692084
0.0693
0.0693918
0.0694837
0.0695757
0.0696679
0.0697603
0.0698528
0.0699454
0.0700382
0.0701311
0.0702241
0.0703173
0.0704107
0.0705041
0.0705977
0.0706915
0.0707854
0.0708794
0.0709736
0.0710679
0.0711624
0.071257
0.0713518
0.0714467
0.0715417
0.0716369
0.0717322
0.0718277
0.0719233
0.0720191
0.0721151
0.0722111
0.0723074
0.0724038
0.0725003
0.072597
0.0726938
0.0727908
0.072888
0.0729853
0.0730828
0.0731804
0.0732782
0.0733762
0.0734742
0.073572
0.0736705
0.0737692
0.0738681
0.0739671
0.0740662
0.0741656
0.074265
0.0743647
0.0744645
0.0745644
0.0746646
0.0747649
0.0748653
0.074966
0.0750669
0.0751679
0.0752691
0.0753704
0.075472
0.0755737
0.0756757
0.0757778
0.07588
0.0759825
0.0760848
0.0761876
0.0762906
0.0763938
0.0764972
0.0766007
0.0767045
0.0768084
0.0769125
0.0770168
0.0771212
0.0772259
0.0773308
0.0774358
0.0775411
0.0776465
0.0777521
0.0778579
0.077964
0.0780702
0.0781766
0.078283
0.0783892
0.0784962
0.0786034
0.0787108
0.0788184
0.0789262
0.0790343
0.0791425
0.0792509
0.0793595
0.0794684
0.0795774
0.0796867
0.0797962
0.0799059
0.0800158
0.0801259
0.0802362
0.0803467
0.0804575
0.0805685
0.0806796
0.080791
0.0809027
0.0810145
0.0811266
0.0812389
0.0813514
0.0814641
0.0815771
0.0816902
0.0818036
0.0819173
0.0820311
0.0821452
0.0822596
0.0823741
0.0824889
0.0826039
0.0827192
0.0828347
0.0829504
0.0830664
0.0831826
0.0832991
0.0834157
0.0835327
0.0836499
0.0837673
0.0838849
0.0840029
0.084121
0.0842394
0.0843581
0.084477
0.0845961
0.0847155
0.0848352
0.0849551
0.0850753
0.0851957
0.0853164
0.0854373
0.0855585
0.08568
0.0858017
0.0859237
0.0860459
0.0861684
0.0862912
0.0864143
0.0865376
0.0866611
0.086785
0.0869091
0.0870334
0.0871581
0.087283
0.0874082
0.0875337
0.0876594
0.0877854
0.0879117
0.0880383
0.0881651
0.0882922
0.0884196
0.0885473
0.0886753
0.0888035
0.088932
0.0890608
0.0891899
0.0893193
0.0894489
0.0895789
0.0897091
0.0898396
0.0899704
0.0901015
0.0902328
0.0903645
0.0904965
0.0906287
0.0907612
0.0908941
0.0910272
0.0911606
0.0912943
0.0914283
0.0915626
0.0916972
0.0918321
0.0919673
0.0921028
0.0922386
0.0923746
0.092511
0.0926477
0.0927847
0.092922
0.0930596
0.0931975
0.0933357
0.0934742
0.093613
0.0937522
0.0938916
0.0940313
0.0941714
0.0943117
0.0944524
0.0945934
0.0947347
0.0948763
0.0950183
0.0951605
0.0953031
0.0954459
0.0955891
0.0957327
0.0958765
0.0960207
0.0961651
0.0963099
0.0964551
0.0966005
0.0967463
0.0968924
0.0970388
0.0971856
0.0973327
0.0974801
0.0976279
0.097776
0.0979245
0.0980732
0.0982224
0.0983718
0.0985217
0.0986718
0.0988219
0.0989727
0.0991239
0.0992754
0.0994273
0.0995795
0.0997321
0.0998849
0.100038
0.100192
0.100346
0.1005
0.100655
0.10081
0.100965
0.101121
0.101277
0.101433
0.10159
0.101747
0.101905
0.102063
0.102221
0.10238
0.102539
0.102698
0.102858
0.103018
0.103178
0.103339
0.103501
0.103662
0.103824
0.103987
0.104149
0.104313
0.104476
0.10464
0.104804
0.104969
0.105134
0.1053
0.105465
0.105632
0.105798
0.105966
0.106133
0.106301
0.106469
0.106638
0.106807
0.106976
0.107146
0.107316
0.107487
0.107658
0.10783
0.108002
0.108174
0.108347
0.10852
0.108694
0.108868
0.109042
0.109217
0.109392
0.109568
0.109744
0.10992
0.110097
0.110275
0.110452
0.110631
0.110809
0.110988
0.111168
0.111348
0.111528
0.111709
0.11189
0.112072
0.112254
0.112437
0.11262
0.112803
0.112987
0.113172
0.113357
0.113542
0.113728
0.113914
0.1141
0.114287
0.114475
0.114663
0.114852
0.11504
0.11523
0.11542
0.11561
0.115801
0.115992
0.116184
0.116376
0.116569
0.116762
0.116955
0.11715
0.117344
0.117539
0.117735
0.117931
0.118127
0.118324
0.118522
0.11872
0.118918
0.119117
0.119317
0.119517
0.119717
0.119918
0.12012
0.120321
0.120524
0.120727
0.12093
0.121134
0.121339
0.121544
0.12175
0.121956
0.122162
0.12237
0.122577
0.122785
0.122994
0.123203
0.123413
0.123624
0.123834
0.124046
0.124258
0.12447
0.124683
0.124897
0.125111
0.125326
0.125541
0.125757
0.125974
0.12619
0.126408
0.126626
0.126845
0.127064
0.127284
0.127504
0.127725
0.127947
0.128169
0.128391
0.128613
0.128837
0.129061
0.129286
0.129512
0.129738
0.129965
0.130193
0.130421
0.13065
0.130879
0.131109
0.131339
0.131571
0.131802
0.132035
0.132268
0.132501
0.132736
0.13297
0.133206
0.133442
0.133679
0.133916
0.134154
0.134393
0.134632
0.134872
0.135113
0.135354
0.135596
0.135838
0.136082
0.136326
0.13657
0.136815
0.137061
0.137308
0.137555
0.137803
0.138051
0.1383
0.13855
0.138801
0.139052
0.139304
0.139556
0.139809
0.140063
0.140318
0.140573
0.140829
0.141085
0.141341
0.141599
0.141858
0.142117
0.142377
0.142638
0.142899
0.143162
0.143424
0.143688
0.143952
0.144217
0.144483
0.14475
0.145017
0.145285
0.145553
0.145823
0.146093
0.146364
0.146635
0.146908
0.147181
0.147455
0.147729
0.148004
0.148281
0.148557
0.148835
0.149113
0.149392
0.149672
0.149953
0.150234
0.150517
0.1508
0.151083
0.151368
0.151653
0.15194
0.152227
0.152514
0.152803
0.153093
0.153383
0.153674
0.153966
0.154258
0.154552
0.154846
0.155142
0.155438
0.155735
0.156033
0.156331
0.156631
0.156931
0.157233
0.157535
0.157838
0.158142
0.158447
0.158752
0.159059
0.159367
0.159675
0.159985
0.160295
0.160607
0.160918
0.161229
0.161543
0.161859
0.162173
0.162489
0.162807
0.163125
0.163445
0.163765
0.164087
0.16441
0.164733
0.165057
0.165383
0.165709
0.166037
0.166365
0.166694
0.167025
0.167356
0.167688
0.168022
0.168356
0.168691
0.169028
0.169365
0.169703
0.170043
0.170383
0.170725
0.171067
0.171411
0.171755
0.172101
0.172447
0.172795
0.173144
0.173493
0.173844
0.174196
0.174549
0.174903
0.175258
0.175614
0.175971
0.176329
0.176688
0.177048
0.177409
0.177772
0.178135
0.178499
0.178865
0.179231
0.179599
0.179967
0.180337
0.180708
0.18108
0.181453
0.181827
0.182202
0.182578
0.182955
0.183333
0.183712
0.184093
0.184474
0.184857
0.185241
0.185626
0.186012
0.186399
0.186787
0.187177
0.187568
0.18796
0.188353
0.188748
0.189143
0.189541
0.189939
0.190339
0.190741
0.191144
0.191549
0.191955
0.192364
0.192774
0.193186
0.1936
0.194016
0.194435
0.194856
0.19528
0.195707
0.196137
0.19657
0.197006
0.197446
0.197891
0.198339
0.198793
0.199251
0.199716
0.200186
0.200662
0.201146
0.201637
0.202136
0.202644
0.203162
0.20369
0.204229
0.20478
0.205345
0.205924
0.206518
0.207128
0.207757
0.208405
0.209073
0.209764
0.210479
0.211219
0.211988
0.212786
0.213617
0.214482
0.215384
0.216325
0.217308
0.218336
0.219413
0.220541
0.221723
0.222964
0.224267
0.225635
0.227074
0.228586
0.230177
0.231851
0.233612
0.235466
0.237417
0.239471
0.241633
0.243907
0.246301
0.248818
0.251465
0.254246
0.257168
0.260236
0.263455
0.26683
0.270366
0.274067
0.277937
0.28198
0.286199
0.290597
0.295173
0.29993
0.304866
0.30998
0.315267
0.320723
0.326342
0.332113
0.338026
0.344067
0.35022
0.356465
0.362779
0.369136
0.375505
0.381854
0.388144
0.394333
0.400373
0.406213
0.411797
0.417066
0.421953
0.426392
0.430308
0.433627
0.43627
0.438159
0.439212
0.439349
0.438494
0.436571
0.43351
0.42925
0.423737
0.416927
0.408791
0.399314
0.388497
0.376362
0.362949
0.34832
0.332559
0.315771
0.298084
0.279646
0.260622
0.241195
0.221559
0.201915
0.182469
0.163426
0.144981
0.127319
0.110606
0.094985
0.0805713
0.0674884
0.0558272
0.0453982
0.0363248
0.0285633
0.022043
0.0166703
0.0123342
0.00891208
0.00627574
0.00429716
0.0028538
0.00183295
0.00113492
0.000674981
0.000384014
0.00020802
0.000106724
5.15439e-05
2.32717e-05
9.74371e-06
3.7486e-06
1.31146e-06
4.11697e-07
1.13808e-07
2.73716e-08
5.53514e-09
9.51105e-10
9.9409e-14
-2.81436e-17
-2.0402e-18
-2.27314e-10
0
0
)
;

boundaryField
{
    fixedWall
    {
        type            calculated;
        value           uniform 0;
    }
    outlet
    {
        type            calculated;
        value           uniform 0;
    }
    defaultFaces
    {
        type            empty;
    }
}


// ************************************************************************* //
