/*--------------------------------*- C++ -*----------------------------------*\
| =========                 |                                                 |
| \\      /  F ield         | OpenFOAM: The Open Source CFD Toolbox           |
|  \\    /   O peration     | Version:  2406                                  |
|   \\  /    A nd           | Website:  www.openfoam.com                      |
|    \\/     M anipulation  |                                                 |
\*---------------------------------------------------------------------------*/
FoamFile
{
    version     2.0;
    format      ascii;
    arch        "LSB;label=32;scalar=64";
    class       volScalarField;
    location    "11";
    object      T;
}
// * * * * * * * * * * * * * * * * * * * * * * * * * * * * * * * * * * * * * //

dimensions      [0 0 0 1 0 0 0];

internalField   nonuniform List<scalar> 
1000
(
305.243
327.872
348.875
368.504
386.95
404.364
420.864
436.548
451.498
465.779
479.452
492.564
505.159
517.274
528.942
540.193
551.051
561.542
571.685
581.499
591.001
600.207
609.131
617.787
626.185
634.338
642.255
649.946
657.42
664.685
671.748
678.617
685.299
691.8
698.126
704.283
710.275
716.109
721.788
727.319
732.704
737.948
743.055
748.029
752.873
757.592
762.187
766.664
771.024
775.271
779.407
783.436
787.359
791.181
794.902
798.527
802.056
805.492
808.838
812.096
815.267
818.355
821.36
824.285
827.132
829.902
832.597
835.22
837.771
840.253
842.667
845.015
847.298
849.517
851.675
853.773
855.812
857.793
859.719
861.589
863.407
865.172
866.886
868.55
870.167
871.735
873.258
874.736
876.17
877.561
878.911
880.22
881.489
882.719
883.912
885.068
886.189
887.275
888.326
889.345
890.332
891.287
892.212
893.107
893.973
894.811
895.622
896.406
897.165
897.898
898.607
899.292
899.954
900.594
901.212
901.808
902.385
902.941
903.478
903.996
904.496
904.978
905.444
905.892
906.325
906.741
907.143
907.53
907.903
908.262
908.608
908.94
909.261
909.569
909.866
910.151
910.425
910.689
910.943
911.186
911.421
911.645
911.862
912.069
912.268
912.459
912.643
912.819
912.988
913.149
913.305
913.453
913.596
913.732
913.863
913.988
914.108
914.223
914.333
914.438
914.539
914.635
914.727
914.814
914.898
914.978
915.055
915.128
915.198
915.264
915.328
915.389
915.447
915.502
915.555
915.605
915.652
915.698
915.741
915.782
915.822
915.859
915.895
915.928
915.96
915.991
916.02
916.047
916.073
916.098
916.122
916.144
916.165
916.185
916.204
916.222
916.239
916.255
916.271
916.285
916.299
916.311
916.324
916.335
916.346
916.356
916.366
916.375
916.383
916.391
916.399
916.406
916.413
916.419
916.425
916.43
916.436
916.44
916.445
916.449
916.453
916.457
916.46
916.464
916.467
916.469
916.472
916.474
916.477
916.479
916.48
916.482
916.484
916.485
916.487
916.488
916.489
916.49
916.491
916.492
916.493
916.493
916.494
916.494
916.495
916.495
916.496
916.496
916.496
916.496
916.497
916.497
916.497
916.497
916.497
916.497
916.497
916.497
916.497
916.497
916.497
916.497
916.496
916.496
916.496
916.496
916.496
916.496
916.496
916.495
916.495
916.495
916.495
916.495
916.495
916.494
916.494
916.494
916.494
916.494
916.494
916.494
916.493
916.493
916.493
916.493
916.493
916.493
916.493
916.493
916.492
916.492
916.492
916.492
916.492
916.492
916.492
916.492
916.492
916.492
916.492
916.492
916.492
916.492
916.492
916.492
916.492
916.492
916.492
916.492
916.493
916.493
916.493
916.493
916.493
916.493
916.493
916.493
916.493
916.494
916.494
916.494
916.494
916.494
916.494
916.494
916.495
916.495
916.495
916.495
916.495
916.496
916.496
916.496
916.496
916.496
916.497
916.497
916.497
916.497
916.498
916.498
916.498
916.498
916.498
916.499
916.499
916.499
916.499
916.5
916.5
916.5
916.5
916.501
916.501
916.501
916.501
916.502
916.502
916.502
916.502
916.503
916.503
916.503
916.503
916.503
916.504
916.504
916.504
916.504
916.505
916.505
916.505
916.505
916.505
916.506
916.506
916.506
916.506
916.506
916.507
916.507
916.507
916.507
916.507
916.507
916.508
916.508
916.508
916.508
916.508
916.508
916.509
916.509
916.509
916.509
916.509
916.509
916.509
916.51
916.51
916.51
916.51
916.51
916.51
916.51
916.51
916.511
916.511
916.511
916.511
916.511
916.511
916.511
916.511
916.511
916.511
916.511
916.512
916.512
916.512
916.512
916.512
916.512
916.512
916.512
916.512
916.512
916.512
916.512
916.512
916.512
916.512
916.513
916.513
916.513
916.513
916.513
916.513
916.513
916.513
916.513
916.513
916.513
916.513
916.513
916.513
916.513
916.513
916.513
916.513
916.513
916.513
916.513
916.514
916.514
916.514
916.514
916.514
916.514
916.514
916.514
916.514
916.514
916.514
916.514
916.514
916.514
916.514
916.514
916.514
916.514
916.514
916.514
916.514
916.514
916.514
916.514
916.514
916.514
916.514
916.514
916.515
916.515
916.515
916.515
916.515
916.515
916.515
916.515
916.515
916.515
916.515
916.515
916.515
916.515
916.515
916.515
916.515
916.515
916.515
916.515
916.515
916.515
916.515
916.515
916.515
916.515
916.515
916.515
916.515
916.515
916.515
916.515
916.515
916.515
916.515
916.515
916.515
916.515
916.515
916.515
916.515
916.515
916.515
916.515
916.515
916.515
916.515
916.515
916.515
916.515
916.515
916.515
916.515
916.515
916.516
916.516
916.516
916.516
916.516
916.516
916.516
916.516
916.516
916.516
916.516
916.516
916.516
916.516
916.516
916.516
916.516
916.516
916.516
916.516
916.516
916.516
916.516
916.516
916.516
916.516
916.516
916.516
916.516
916.516
916.516
916.516
916.516
916.516
916.517
916.517
916.517
916.517
916.517
916.517
916.517
916.517
916.517
916.517
916.517
916.517
916.517
916.517
916.517
916.517
916.517
916.517
916.517
916.517
916.517
916.517
916.517
916.518
916.518
916.518
916.518
916.518
916.518
916.518
916.518
916.518
916.518
916.518
916.518
916.518
916.518
916.518
916.518
916.518
916.518
916.518
916.518
916.518
916.518
916.518
916.518
916.518
916.518
916.518
916.518
916.518
916.518
916.518
916.518
916.518
916.518
916.518
916.518
916.518
916.518
916.518
916.518
916.518
916.518
916.518
916.518
916.518
916.518
916.518
916.518
916.518
916.518
916.518
916.518
916.518
916.518
916.518
916.518
916.518
916.518
916.518
916.518
916.518
916.518
916.518
916.518
916.517
916.517
916.517
916.517
916.517
916.517
916.517
916.517
916.517
916.517
916.517
916.517
916.517
916.517
916.517
916.517
916.517
916.517
916.517
916.517
916.517
916.517
916.517
916.517
916.517
916.517
916.517
916.517
916.517
916.517
916.517
916.517
916.517
916.517
916.518
916.518
916.518
916.518
916.518
916.518
916.518
916.518
916.518
916.518
916.518
916.518
916.518
916.518
916.518
916.518
916.518
916.519
916.519
916.519
916.519
916.519
916.519
916.519
916.519
916.519
916.519
916.519
916.519
916.52
916.52
916.52
916.52
916.52
916.52
916.52
916.52
916.52
916.52
916.52
916.52
916.52
916.52
916.52
916.521
916.521
916.521
916.521
916.521
916.521
916.521
916.521
916.521
916.521
916.521
916.521
916.521
916.521
916.521
916.521
916.521
916.521
916.521
916.521
916.52
916.52
916.52
916.52
916.52
916.52
916.52
916.52
916.52
916.52
916.519
916.519
916.519
916.519
916.519
916.518
916.518
916.518
916.518
916.518
916.517
916.517
916.517
916.516
916.516
916.516
916.515
916.515
916.514
916.514
916.513
916.513
916.512
916.511
916.511
916.51
916.509
916.508
916.508
916.507
916.506
916.504
916.503
916.502
916.5
916.499
916.497
916.496
916.494
916.492
916.489
916.487
916.484
916.482
916.479
916.475
916.472
916.468
916.464
916.46
916.455
916.45
916.444
916.438
916.432
916.425
916.417
916.409
916.4
916.391
916.381
916.37
916.358
916.346
916.332
916.317
916.302
916.285
916.267
916.248
916.227
916.205
916.181
916.155
916.128
916.098
916.067
916.033
915.998
915.959
915.918
915.875
915.828
915.778
915.725
915.669
915.608
915.544
915.476
915.404
915.326
915.244
915.157
915.065
914.967
914.863
914.752
914.635
914.512
914.381
914.242
914.095
913.94
913.776
913.603
913.421
913.228
913.025
912.81
912.585
912.347
912.097
911.834
911.557
911.266
910.96
910.639
910.302
909.949
909.578
909.19
908.783
908.357
907.911
907.444
906.956
906.446
905.913
905.357
904.776
904.17
903.538
902.878
902.192
901.476
900.731
899.956
899.149
898.311
897.439
896.532
895.591
894.614
893.599
892.547
891.455
890.322
889.149
887.933
886.673
885.368
884.018
882.62
881.173
879.677
878.13
876.53
874.877
873.168
871.403
869.58
867.696
865.752
863.744
861.672
859.533
857.325
855.048
852.698
850.273
847.772
845.193
842.532
839.787
836.956
834.036
831.024
827.918
824.713
821.408
817.998
814.48
810.849
807.103
803.237
799.247
795.127
790.873
786.48
781.943
777.256
772.413
767.407
762.233
756.883
751.35
745.626
739.704
733.575
727.23
720.659
713.887
706.912
699.611
692.046
684.205
676.076
667.648
658.909
649.845
640.446
630.697
620.587
610.103
599.234
587.967
576.294
564.204
551.689
538.744
525.364
511.549
497.302
482.628
467.538
452.05
436.186
419.975
403.456
386.677
369.693
352.575
335.403
318.277
301.308
)
;

boundaryField
{
    fixedWall
    {
        type            fixedValue;
        value           uniform 293;
    }
    outlet
    {
        type            inletOutlet;
        inletValue      uniform 293;
        value           uniform 293;
    }
    defaultFaces
    {
        type            empty;
    }
}


// ************************************************************************* //
