/*--------------------------------*- C++ -*----------------------------------*\
| =========                 |                                                 |
| \\      /  F ield         | OpenFOAM: The Open Source CFD Toolbox           |
|  \\    /   O peration     | Version:  2406                                  |
|   \\  /    A nd           | Website:  www.openfoam.com                      |
|    \\/     M anipulation  |                                                 |
\*---------------------------------------------------------------------------*/
FoamFile
{
    version     2.0;
    format      ascii;
    arch        "LSB;label=32;scalar=64";
    class       volVectorField;
    location    "11";
    object      U;
}
// * * * * * * * * * * * * * * * * * * * * * * * * * * * * * * * * * * * * * //

dimensions      [0 1 -1 0 0 0 0];

internalField   nonuniform List<vector> 
1000
(
(-8.52175e-07 0 0)
(-4.0554e-06 0 0)
(-1.03955e-05 0 0)
(-1.91479e-05 0 0)
(-2.97616e-05 0 0)
(-4.19051e-05 0 0)
(-5.53455e-05 0 0)
(-6.98946e-05 0 0)
(-8.53917e-05 0 0)
(-0.000101703 0 0)
(-0.000118716 0 0)
(-0.000136335 0 0)
(-0.000154477 0 0)
(-0.00017307 0 0)
(-0.000192053 0 0)
(-0.000211369 0 0)
(-0.00023097 0 0)
(-0.000250814 0 0)
(-0.00027086 0 0)
(-0.000291076 0 0)
(-0.000311428 0 0)
(-0.000331889 0 0)
(-0.000352431 0 0)
(-0.000373033 0 0)
(-0.000393671 0 0)
(-0.000414326 0 0)
(-0.000434979 0 0)
(-0.000455614 0 0)
(-0.000476213 0 0)
(-0.000496765 0 0)
(-0.000517252 0 0)
(-0.000537665 0 0)
(-0.00055799 0 0)
(-0.000578218 0 0)
(-0.000598337 0 0)
(-0.000618338 0 0)
(-0.000638212 0 0)
(-0.000657952 0 0)
(-0.000677548 0 0)
(-0.000696994 0 0)
(-0.000716285 0 0)
(-0.00073541 0 0)
(-0.000754368 0 0)
(-0.00077315 0 0)
(-0.000791753 0 0)
(-0.00081017 0 0)
(-0.000828399 0 0)
(-0.000846434 0 0)
(-0.000864273 0 0)
(-0.000881911 0 0)
(-0.000899344 0 0)
(-0.000916571 0 0)
(-0.000933589 0 0)
(-0.000950395 0 0)
(-0.000966986 0 0)
(-0.000983361 0 0)
(-0.000999518 0 0)
(-0.00101546 0 0)
(-0.00103117 0 0)
(-0.00104667 0 0)
(-0.00106194 0 0)
(-0.00107698 0 0)
(-0.00109181 0 0)
(-0.0011064 0 0)
(-0.00112077 0 0)
(-0.00113492 0 0)
(-0.00114884 0 0)
(-0.00116253 0 0)
(-0.001176 0 0)
(-0.00118924 0 0)
(-0.00120226 0 0)
(-0.00121505 0 0)
(-0.00122762 0 0)
(-0.00123997 0 0)
(-0.00125209 0 0)
(-0.001264 0 0)
(-0.00127568 0 0)
(-0.00128715 0 0)
(-0.0012984 0 0)
(-0.00130943 0 0)
(-0.00132025 0 0)
(-0.00133086 0 0)
(-0.00134126 0 0)
(-0.00135144 0 0)
(-0.00136142 0 0)
(-0.0013712 0 0)
(-0.00138077 0 0)
(-0.00139014 0 0)
(-0.00139931 0 0)
(-0.00140828 0 0)
(-0.00141706 0 0)
(-0.00142565 0 0)
(-0.00143404 0 0)
(-0.00144225 0 0)
(-0.00145027 0 0)
(-0.0014581 0 0)
(-0.00146576 0 0)
(-0.00147323 0 0)
(-0.00148053 0 0)
(-0.00148766 0 0)
(-0.00149461 0 0)
(-0.00150139 0 0)
(-0.00150801 0 0)
(-0.00151447 0 0)
(-0.00152076 0 0)
(-0.00152689 0 0)
(-0.00153287 0 0)
(-0.00153869 0 0)
(-0.00154436 0 0)
(-0.00154989 0 0)
(-0.00155526 0 0)
(-0.0015605 0 0)
(-0.00156559 0 0)
(-0.00157055 0 0)
(-0.00157537 0 0)
(-0.00158006 0 0)
(-0.00158461 0 0)
(-0.00158904 0 0)
(-0.00159334 0 0)
(-0.00159753 0 0)
(-0.00160159 0 0)
(-0.00160553 0 0)
(-0.00160936 0 0)
(-0.00161307 0 0)
(-0.00161668 0 0)
(-0.00162018 0 0)
(-0.00162357 0 0)
(-0.00162686 0 0)
(-0.00163005 0 0)
(-0.00163314 0 0)
(-0.00163613 0 0)
(-0.00163903 0 0)
(-0.00164184 0 0)
(-0.00164456 0 0)
(-0.00164719 0 0)
(-0.00164974 0 0)
(-0.0016522 0 0)
(-0.00165459 0 0)
(-0.00165689 0 0)
(-0.00165912 0 0)
(-0.00166128 0 0)
(-0.00166336 0 0)
(-0.00166537 0 0)
(-0.00166731 0 0)
(-0.00166919 0 0)
(-0.001671 0 0)
(-0.00167275 0 0)
(-0.00167444 0 0)
(-0.00167606 0 0)
(-0.00167763 0 0)
(-0.00167915 0 0)
(-0.00168061 0 0)
(-0.00168201 0 0)
(-0.00168337 0 0)
(-0.00168467 0 0)
(-0.00168593 0 0)
(-0.00168714 0 0)
(-0.0016883 0 0)
(-0.00168942 0 0)
(-0.0016905 0 0)
(-0.00169153 0 0)
(-0.00169253 0 0)
(-0.00169348 0 0)
(-0.0016944 0 0)
(-0.00169529 0 0)
(-0.00169614 0 0)
(-0.00169696 0 0)
(-0.00169774 0 0)
(-0.00169849 0 0)
(-0.00169921 0 0)
(-0.0016999 0 0)
(-0.00170057 0 0)
(-0.0017012 0 0)
(-0.00170182 0 0)
(-0.0017024 0 0)
(-0.00170297 0 0)
(-0.00170351 0 0)
(-0.00170402 0 0)
(-0.00170452 0 0)
(-0.00170499 0 0)
(-0.00170545 0 0)
(-0.00170588 0 0)
(-0.0017063 0 0)
(-0.00170669 0 0)
(-0.00170707 0 0)
(-0.00170743 0 0)
(-0.00170778 0 0)
(-0.00170811 0 0)
(-0.00170843 0 0)
(-0.00170873 0 0)
(-0.00170902 0 0)
(-0.00170929 0 0)
(-0.00170955 0 0)
(-0.0017098 0 0)
(-0.00171004 0 0)
(-0.00171027 0 0)
(-0.00171049 0 0)
(-0.00171069 0 0)
(-0.00171089 0 0)
(-0.00171108 0 0)
(-0.00171126 0 0)
(-0.00171143 0 0)
(-0.00171159 0 0)
(-0.00171174 0 0)
(-0.00171189 0 0)
(-0.00171203 0 0)
(-0.00171216 0 0)
(-0.00171229 0 0)
(-0.00171241 0 0)
(-0.00171252 0 0)
(-0.00171263 0 0)
(-0.00171273 0 0)
(-0.00171283 0 0)
(-0.00171292 0 0)
(-0.00171301 0 0)
(-0.00171309 0 0)
(-0.00171317 0 0)
(-0.00171324 0 0)
(-0.00171331 0 0)
(-0.00171338 0 0)
(-0.00171344 0 0)
(-0.0017135 0 0)
(-0.00171356 0 0)
(-0.00171361 0 0)
(-0.00171366 0 0)
(-0.00171371 0 0)
(-0.00171376 0 0)
(-0.0017138 0 0)
(-0.00171384 0 0)
(-0.00171387 0 0)
(-0.00171391 0 0)
(-0.00171394 0 0)
(-0.00171398 0 0)
(-0.001714 0 0)
(-0.00171403 0 0)
(-0.00171406 0 0)
(-0.00171408 0 0)
(-0.0017141 0 0)
(-0.00171413 0 0)
(-0.00171415 0 0)
(-0.00171416 0 0)
(-0.00171418 0 0)
(-0.0017142 0 0)
(-0.00171421 0 0)
(-0.00171423 0 0)
(-0.00171424 0 0)
(-0.00171425 0 0)
(-0.00171426 0 0)
(-0.00171428 0 0)
(-0.00171428 0 0)
(-0.00171429 0 0)
(-0.0017143 0 0)
(-0.00171431 0 0)
(-0.00171432 0 0)
(-0.00171432 0 0)
(-0.00171433 0 0)
(-0.00171433 0 0)
(-0.00171434 0 0)
(-0.00171434 0 0)
(-0.00171435 0 0)
(-0.00171435 0 0)
(-0.00171435 0 0)
(-0.00171436 0 0)
(-0.00171436 0 0)
(-0.00171436 0 0)
(-0.00171436 0 0)
(-0.00171436 0 0)
(-0.00171436 0 0)
(-0.00171437 0 0)
(-0.00171437 0 0)
(-0.00171437 0 0)
(-0.00171437 0 0)
(-0.00171437 0 0)
(-0.00171437 0 0)
(-0.00171437 0 0)
(-0.00171436 0 0)
(-0.00171437 0 0)
(-0.00171436 0 0)
(-0.00171436 0 0)
(-0.00171436 0 0)
(-0.00171436 0 0)
(-0.00171436 0 0)
(-0.00171436 0 0)
(-0.00171436 0 0)
(-0.00171436 0 0)
(-0.00171435 0 0)
(-0.00171436 0 0)
(-0.00171435 0 0)
(-0.00171435 0 0)
(-0.00171435 0 0)
(-0.00171434 0 0)
(-0.00171435 0 0)
(-0.00171434 0 0)
(-0.00171434 0 0)
(-0.00171434 0 0)
(-0.00171433 0 0)
(-0.00171434 0 0)
(-0.00171433 0 0)
(-0.00171433 0 0)
(-0.00171433 0 0)
(-0.00171432 0 0)
(-0.00171432 0 0)
(-0.00171432 0 0)
(-0.00171432 0 0)
(-0.00171432 0 0)
(-0.00171432 0 0)
(-0.00171431 0 0)
(-0.00171431 0 0)
(-0.00171431 0 0)
(-0.0017143 0 0)
(-0.00171431 0 0)
(-0.0017143 0 0)
(-0.0017143 0 0)
(-0.0017143 0 0)
(-0.0017143 0 0)
(-0.0017143 0 0)
(-0.00171429 0 0)
(-0.00171429 0 0)
(-0.00171429 0 0)
(-0.00171429 0 0)
(-0.00171429 0 0)
(-0.00171428 0 0)
(-0.00171429 0 0)
(-0.00171428 0 0)
(-0.00171428 0 0)
(-0.00171428 0 0)
(-0.00171428 0 0)
(-0.00171428 0 0)
(-0.00171428 0 0)
(-0.00171427 0 0)
(-0.00171427 0 0)
(-0.00171427 0 0)
(-0.00171427 0 0)
(-0.00171427 0 0)
(-0.00171427 0 0)
(-0.00171427 0 0)
(-0.00171427 0 0)
(-0.00171427 0 0)
(-0.00171426 0 0)
(-0.00171427 0 0)
(-0.00171426 0 0)
(-0.00171426 0 0)
(-0.00171426 0 0)
(-0.00171426 0 0)
(-0.00171427 0 0)
(-0.00171426 0 0)
(-0.00171426 0 0)
(-0.00171426 0 0)
(-0.00171426 0 0)
(-0.00171426 0 0)
(-0.00171426 0 0)
(-0.00171426 0 0)
(-0.00171426 0 0)
(-0.00171426 0 0)
(-0.00171426 0 0)
(-0.00171426 0 0)
(-0.00171426 0 0)
(-0.00171426 0 0)
(-0.00171426 0 0)
(-0.00171426 0 0)
(-0.00171426 0 0)
(-0.00171426 0 0)
(-0.00171426 0 0)
(-0.00171426 0 0)
(-0.00171426 0 0)
(-0.00171426 0 0)
(-0.00171426 0 0)
(-0.00171426 0 0)
(-0.00171426 0 0)
(-0.00171426 0 0)
(-0.00171426 0 0)
(-0.00171426 0 0)
(-0.00171427 0 0)
(-0.00171426 0 0)
(-0.00171427 0 0)
(-0.00171427 0 0)
(-0.00171427 0 0)
(-0.00171427 0 0)
(-0.00171427 0 0)
(-0.00171427 0 0)
(-0.00171427 0 0)
(-0.00171427 0 0)
(-0.00171427 0 0)
(-0.00171427 0 0)
(-0.00171427 0 0)
(-0.00171427 0 0)
(-0.00171427 0 0)
(-0.00171427 0 0)
(-0.00171427 0 0)
(-0.00171427 0 0)
(-0.00171428 0 0)
(-0.00171428 0 0)
(-0.00171428 0 0)
(-0.00171428 0 0)
(-0.00171428 0 0)
(-0.00171428 0 0)
(-0.00171428 0 0)
(-0.00171428 0 0)
(-0.00171428 0 0)
(-0.00171428 0 0)
(-0.00171428 0 0)
(-0.00171428 0 0)
(-0.00171428 0 0)
(-0.00171428 0 0)
(-0.00171428 0 0)
(-0.00171428 0 0)
(-0.00171429 0 0)
(-0.00171429 0 0)
(-0.00171429 0 0)
(-0.00171429 0 0)
(-0.00171429 0 0)
(-0.00171429 0 0)
(-0.00171429 0 0)
(-0.00171429 0 0)
(-0.00171429 0 0)
(-0.00171429 0 0)
(-0.00171429 0 0)
(-0.00171429 0 0)
(-0.00171429 0 0)
(-0.00171429 0 0)
(-0.00171429 0 0)
(-0.00171429 0 0)
(-0.00171429 0 0)
(-0.00171429 0 0)
(-0.00171429 0 0)
(-0.00171429 0 0)
(-0.00171429 0 0)
(-0.00171429 0 0)
(-0.00171429 0 0)
(-0.00171429 0 0)
(-0.00171429 0 0)
(-0.00171429 0 0)
(-0.00171429 0 0)
(-0.00171429 0 0)
(-0.00171429 0 0)
(-0.00171429 0 0)
(-0.00171429 0 0)
(-0.00171429 0 0)
(-0.00171429 0 0)
(-0.0017143 0 0)
(-0.00171429 0 0)
(-0.00171429 0 0)
(-0.00171429 0 0)
(-0.00171429 0 0)
(-0.0017143 0 0)
(-0.00171429 0 0)
(-0.0017143 0 0)
(-0.00171429 0 0)
(-0.00171429 0 0)
(-0.00171429 0 0)
(-0.00171429 0 0)
(-0.00171429 0 0)
(-0.00171429 0 0)
(-0.00171429 0 0)
(-0.00171429 0 0)
(-0.0017143 0 0)
(-0.00171429 0 0)
(-0.0017143 0 0)
(-0.00171429 0 0)
(-0.0017143 0 0)
(-0.00171429 0 0)
(-0.00171429 0 0)
(-0.00171429 0 0)
(-0.00171429 0 0)
(-0.0017143 0 0)
(-0.00171429 0 0)
(-0.0017143 0 0)
(-0.00171429 0 0)
(-0.0017143 0 0)
(-0.00171429 0 0)
(-0.00171429 0 0)
(-0.00171429 0 0)
(-0.00171429 0 0)
(-0.0017143 0 0)
(-0.00171429 0 0)
(-0.00171429 0 0)
(-0.00171429 0 0)
(-0.00171429 0 0)
(-0.00171429 0 0)
(-0.00171429 0 0)
(-0.00171429 0 0)
(-0.00171429 0 0)
(-0.00171429 0 0)
(-0.00171429 0 0)
(-0.00171429 0 0)
(-0.00171429 0 0)
(-0.00171429 0 0)
(-0.00171429 0 0)
(-0.00171429 0 0)
(-0.00171429 0 0)
(-0.00171429 0 0)
(-0.00171429 0 0)
(-0.00171429 0 0)
(-0.00171429 0 0)
(-0.00171429 0 0)
(-0.00171429 0 0)
(-0.00171429 0 0)
(-0.00171429 0 0)
(-0.00171429 0 0)
(-0.00171429 0 0)
(-0.00171429 0 0)
(-0.00171429 0 0)
(-0.00171429 0 0)
(-0.00171429 0 0)
(-0.00171429 0 0)
(-0.00171429 0 0)
(-0.00171429 0 0)
(-0.00171429 0 0)
(-0.00171429 0 0)
(-0.00171429 0 0)
(-0.00171429 0 0)
(-0.00171429 0 0)
(-0.00171429 0 0)
(-0.00171429 0 0)
(-0.00171429 0 0)
(-0.00171429 0 0)
(-0.00171429 0 0)
(-0.00171429 0 0)
(-0.00171429 0 0)
(-0.00171429 0 0)
(-0.00171429 0 0)
(-0.00171429 0 0)
(-0.00171429 0 0)
(-0.00171429 0 0)
(-0.00171429 0 0)
(-0.00171429 0 0)
(-0.00171429 0 0)
(-0.00171429 0 0)
(-0.00171429 0 0)
(-0.00171429 0 0)
(-0.00171429 0 0)
(-0.00171429 0 0)
(-0.00171429 0 0)
(-0.00171429 0 0)
(-0.00171429 0 0)
(-0.00171428 0 0)
(-0.00171429 0 0)
(-0.00171428 0 0)
(-0.00171429 0 0)
(-0.00171428 0 0)
(-0.00171428 0 0)
(-0.00171429 0 0)
(-0.00171428 0 0)
(-0.00171428 0 0)
(-0.00171428 0 0)
(-0.00171428 0 0)
(-0.00171428 0 0)
(-0.00171428 0 0)
(-0.00171428 0 0)
(-0.00171428 0 0)
(-0.00171428 0 0)
(-0.00171428 0 0)
(-0.00171428 0 0)
(-0.00171428 0 0)
(-0.00171428 0 0)
(-0.00171428 0 0)
(-0.00171428 0 0)
(-0.00171428 0 0)
(-0.00171428 0 0)
(-0.00171428 0 0)
(-0.00171427 0 0)
(-0.00171428 0 0)
(-0.00171428 0 0)
(-0.00171427 0 0)
(-0.00171428 0 0)
(-0.00171427 0 0)
(-0.00171428 0 0)
(-0.00171427 0 0)
(-0.00171428 0 0)
(-0.00171427 0 0)
(-0.00171427 0 0)
(-0.00171427 0 0)
(-0.00171427 0 0)
(-0.00171427 0 0)
(-0.00171427 0 0)
(-0.00171427 0 0)
(-0.00171427 0 0)
(-0.00171427 0 0)
(-0.00171427 0 0)
(-0.00171427 0 0)
(-0.00171427 0 0)
(-0.00171427 0 0)
(-0.00171427 0 0)
(-0.00171427 0 0)
(-0.00171427 0 0)
(-0.00171427 0 0)
(-0.00171427 0 0)
(-0.00171427 0 0)
(-0.00171427 0 0)
(-0.00171427 0 0)
(-0.00171427 0 0)
(-0.00171427 0 0)
(-0.00171427 0 0)
(-0.00171427 0 0)
(-0.00171427 0 0)
(-0.00171427 0 0)
(-0.00171427 0 0)
(-0.00171427 0 0)
(-0.00171427 0 0)
(-0.00171427 0 0)
(-0.00171427 0 0)
(-0.00171427 0 0)
(-0.00171427 0 0)
(-0.00171427 0 0)
(-0.00171427 0 0)
(-0.00171427 0 0)
(-0.00171427 0 0)
(-0.00171427 0 0)
(-0.00171427 0 0)
(-0.00171427 0 0)
(-0.00171427 0 0)
(-0.00171427 0 0)
(-0.00171427 0 0)
(-0.00171427 0 0)
(-0.00171427 0 0)
(-0.00171427 0 0)
(-0.00171427 0 0)
(-0.00171428 0 0)
(-0.00171427 0 0)
(-0.00171428 0 0)
(-0.00171427 0 0)
(-0.00171428 0 0)
(-0.00171427 0 0)
(-0.00171428 0 0)
(-0.00171428 0 0)
(-0.00171428 0 0)
(-0.00171428 0 0)
(-0.00171428 0 0)
(-0.00171428 0 0)
(-0.00171428 0 0)
(-0.00171428 0 0)
(-0.00171428 0 0)
(-0.00171428 0 0)
(-0.00171428 0 0)
(-0.00171428 0 0)
(-0.00171427 0 0)
(-0.00171428 0 0)
(-0.00171428 0 0)
(-0.00171428 0 0)
(-0.00171428 0 0)
(-0.00171427 0 0)
(-0.00171428 0 0)
(-0.00171428 0 0)
(-0.00171428 0 0)
(-0.00171428 0 0)
(-0.00171428 0 0)
(-0.00171428 0 0)
(-0.00171428 0 0)
(-0.00171428 0 0)
(-0.00171428 0 0)
(-0.00171428 0 0)
(-0.00171427 0 0)
(-0.00171428 0 0)
(-0.00171427 0 0)
(-0.00171427 0 0)
(-0.00171428 0 0)
(-0.00171427 0 0)
(-0.00171427 0 0)
(-0.00171427 0 0)
(-0.00171427 0 0)
(-0.00171427 0 0)
(-0.00171427 0 0)
(-0.00171427 0 0)
(-0.00171427 0 0)
(-0.00171427 0 0)
(-0.00171427 0 0)
(-0.00171427 0 0)
(-0.00171427 0 0)
(-0.00171427 0 0)
(-0.00171427 0 0)
(-0.00171427 0 0)
(-0.00171427 0 0)
(-0.00171427 0 0)
(-0.00171427 0 0)
(-0.00171426 0 0)
(-0.00171426 0 0)
(-0.00171426 0 0)
(-0.00171426 0 0)
(-0.00171426 0 0)
(-0.00171426 0 0)
(-0.00171426 0 0)
(-0.00171426 0 0)
(-0.00171426 0 0)
(-0.00171426 0 0)
(-0.00171425 0 0)
(-0.00171426 0 0)
(-0.00171425 0 0)
(-0.00171425 0 0)
(-0.00171425 0 0)
(-0.00171425 0 0)
(-0.00171425 0 0)
(-0.00171425 0 0)
(-0.00171425 0 0)
(-0.00171425 0 0)
(-0.00171425 0 0)
(-0.00171425 0 0)
(-0.00171424 0 0)
(-0.00171425 0 0)
(-0.00171425 0 0)
(-0.00171424 0 0)
(-0.00171425 0 0)
(-0.00171424 0 0)
(-0.00171424 0 0)
(-0.00171424 0 0)
(-0.00171424 0 0)
(-0.00171424 0 0)
(-0.00171424 0 0)
(-0.00171424 0 0)
(-0.00171424 0 0)
(-0.00171424 0 0)
(-0.00171424 0 0)
(-0.00171424 0 0)
(-0.00171424 0 0)
(-0.00171424 0 0)
(-0.00171424 0 0)
(-0.00171424 0 0)
(-0.00171424 0 0)
(-0.00171424 0 0)
(-0.00171424 0 0)
(-0.00171423 0 0)
(-0.00171424 0 0)
(-0.00171424 0 0)
(-0.00171424 0 0)
(-0.00171424 0 0)
(-0.00171424 0 0)
(-0.00171424 0 0)
(-0.00171424 0 0)
(-0.00171424 0 0)
(-0.00171424 0 0)
(-0.00171424 0 0)
(-0.00171424 0 0)
(-0.00171424 0 0)
(-0.00171424 0 0)
(-0.00171424 0 0)
(-0.00171424 0 0)
(-0.00171424 0 0)
(-0.00171424 0 0)
(-0.00171424 0 0)
(-0.00171424 0 0)
(-0.00171424 0 0)
(-0.00171425 0 0)
(-0.00171425 0 0)
(-0.00171425 0 0)
(-0.00171425 0 0)
(-0.00171425 0 0)
(-0.00171425 0 0)
(-0.00171425 0 0)
(-0.00171425 0 0)
(-0.00171425 0 0)
(-0.00171425 0 0)
(-0.00171426 0 0)
(-0.00171426 0 0)
(-0.00171426 0 0)
(-0.00171426 0 0)
(-0.00171426 0 0)
(-0.00171426 0 0)
(-0.00171426 0 0)
(-0.00171427 0 0)
(-0.00171427 0 0)
(-0.00171427 0 0)
(-0.00171427 0 0)
(-0.00171427 0 0)
(-0.00171427 0 0)
(-0.00171428 0 0)
(-0.00171428 0 0)
(-0.00171428 0 0)
(-0.00171428 0 0)
(-0.00171428 0 0)
(-0.00171429 0 0)
(-0.00171429 0 0)
(-0.00171429 0 0)
(-0.00171429 0 0)
(-0.0017143 0 0)
(-0.0017143 0 0)
(-0.0017143 0 0)
(-0.00171431 0 0)
(-0.00171431 0 0)
(-0.00171432 0 0)
(-0.00171432 0 0)
(-0.00171433 0 0)
(-0.00171433 0 0)
(-0.00171434 0 0)
(-0.00171434 0 0)
(-0.00171435 0 0)
(-0.00171436 0 0)
(-0.00171436 0 0)
(-0.00171437 0 0)
(-0.00171438 0 0)
(-0.00171439 0 0)
(-0.0017144 0 0)
(-0.00171441 0 0)
(-0.00171443 0 0)
(-0.00171444 0 0)
(-0.00171446 0 0)
(-0.00171447 0 0)
(-0.00171449 0 0)
(-0.00171451 0 0)
(-0.00171453 0 0)
(-0.00171456 0 0)
(-0.00171458 0 0)
(-0.00171461 0 0)
(-0.00171464 0 0)
(-0.00171467 0 0)
(-0.0017147 0 0)
(-0.00171474 0 0)
(-0.00171478 0 0)
(-0.00171483 0 0)
(-0.00171487 0 0)
(-0.00171492 0 0)
(-0.00171498 0 0)
(-0.00171504 0 0)
(-0.00171511 0 0)
(-0.00171518 0 0)
(-0.00171525 0 0)
(-0.00171534 0 0)
(-0.00171542 0 0)
(-0.00171552 0 0)
(-0.00171562 0 0)
(-0.00171573 0 0)
(-0.00171585 0 0)
(-0.00171598 0 0)
(-0.00171612 0 0)
(-0.00171627 0 0)
(-0.00171643 0 0)
(-0.0017166 0 0)
(-0.00171679 0 0)
(-0.00171699 0 0)
(-0.0017172 0 0)
(-0.00171743 0 0)
(-0.00171768 0 0)
(-0.00171794 0 0)
(-0.00171822 0 0)
(-0.00171852 0 0)
(-0.00171884 0 0)
(-0.00171919 0 0)
(-0.00171956 0 0)
(-0.00171995 0 0)
(-0.00172037 0 0)
(-0.00172082 0 0)
(-0.0017213 0 0)
(-0.00172181 0 0)
(-0.00172236 0 0)
(-0.00172294 0 0)
(-0.00172356 0 0)
(-0.00172422 0 0)
(-0.00172492 0 0)
(-0.00172566 0 0)
(-0.00172645 0 0)
(-0.00172729 0 0)
(-0.00172819 0 0)
(-0.00172914 0 0)
(-0.00173014 0 0)
(-0.00173121 0 0)
(-0.00173234 0 0)
(-0.00173353 0 0)
(-0.0017348 0 0)
(-0.00173614 0 0)
(-0.00173756 0 0)
(-0.00173906 0 0)
(-0.00174065 0 0)
(-0.00174232 0 0)
(-0.00174409 0 0)
(-0.00174595 0 0)
(-0.00174792 0 0)
(-0.00174999 0 0)
(-0.00175218 0 0)
(-0.00175448 0 0)
(-0.0017569 0 0)
(-0.00175944 0 0)
(-0.00176212 0 0)
(-0.00176494 0 0)
(-0.00176789 0 0)
(-0.00177099 0 0)
(-0.00177425 0 0)
(-0.00177766 0 0)
(-0.00178124 0 0)
(-0.00178499 0 0)
(-0.00178892 0 0)
(-0.00179303 0 0)
(-0.00179733 0 0)
(-0.00180183 0 0)
(-0.00180653 0 0)
(-0.00181143 0 0)
(-0.00181656 0 0)
(-0.0018219 0 0)
(-0.00182747 0 0)
(-0.00183328 0 0)
(-0.00183933 0 0)
(-0.00184564 0 0)
(-0.00185219 0 0)
(-0.00185901 0 0)
(-0.0018661 0 0)
(-0.00187347 0 0)
(-0.00188112 0 0)
(-0.00188906 0 0)
(-0.0018973 0 0)
(-0.00190583 0 0)
(-0.00191468 0 0)
(-0.00192384 0 0)
(-0.00193333 0 0)
(-0.00194314 0 0)
(-0.00195328 0 0)
(-0.00196376 0 0)
(-0.00197458 0 0)
(-0.00198576 0 0)
(-0.00199728 0 0)
(-0.00200917 0 0)
(-0.00202141 0 0)
(-0.00203402 0 0)
(-0.002047 0 0)
(-0.00206035 0 0)
(-0.00207407 0 0)
(-0.00208817 0 0)
(-0.00210264 0 0)
(-0.0021175 0 0)
(-0.00213273 0 0)
(-0.00214835 0 0)
(-0.00216434 0 0)
(-0.00218071 0 0)
(-0.00219746 0 0)
(-0.00221458 0 0)
(-0.00223206 0 0)
(-0.00224992 0 0)
(-0.00226814 0 0)
(-0.00228671 0 0)
(-0.00230563 0 0)
(-0.00232489 0 0)
(-0.00234449 0 0)
(-0.00236441 0 0)
(-0.00238465 0 0)
(-0.00240519 0 0)
(-0.00242602 0 0)
(-0.00244713 0 0)
(-0.00246851 0 0)
(-0.00249013 0 0)
(-0.00251199 0 0)
(-0.00253406 0 0)
(-0.00255633 0 0)
(-0.00257877 0 0)
(-0.00260137 0 0)
(-0.0026241 0 0)
(-0.00264693 0 0)
(-0.00266985 0 0)
(-0.00269282 0 0)
(-0.00271581 0 0)
(-0.0027388 0 0)
(-0.00276175 0 0)
(-0.00278463 0 0)
(-0.00280739 0 0)
(-0.00283002 0 0)
(-0.00285246 0 0)
(-0.00287467 0 0)
(-0.00289661 0 0)
(-0.00291824 0 0)
(-0.00293951 0 0)
(-0.00296036 0 0)
(-0.00298075 0 0)
(-0.00300062 0 0)
(-0.00301991 0 0)
(-0.00303857 0 0)
(-0.00305653 0 0)
(-0.00307374 0 0)
(-0.00309012 0 0)
(-0.0031056 0 0)
(-0.00312016 0 0)
(-0.00313375 0 0)
(-0.00314617 0 0)
(-0.0031572 0 0)
(-0.00316675 0 0)
(-0.00317482 0 0)
(-0.0031814 0 0)
(-0.00318643 0 0)
(-0.00318972 0 0)
(-0.00319113 0 0)
(-0.00319058 0 0)
(-0.00318784 0 0)
(-0.00318282 0 0)
(-0.00317534 0 0)
(-0.00316523 0 0)
(-0.00315234 0 0)
(-0.00313645 0 0)
(-0.0031174 0 0)
(-0.00309498 0 0)
(-0.00306897 0 0)
(-0.00303917 0 0)
(-0.00300534 0 0)
(-0.00296725 0 0)
(-0.00292466 0 0)
(-0.00287733 0 0)
(-0.00282501 0 0)
(-0.00276748 0 0)
(-0.00270449 0 0)
(-0.00263581 0 0)
(-0.00256123 0 0)
(-0.00248071 0 0)
(-0.00239449 0 0)
(-0.00230246 0 0)
(-0.0022007 0 0)
(-0.00208059 0 0)
(-0.00196138 0 0)
)
;

boundaryField
{
    fixedWall
    {
        type            fixedValue;
        value           uniform (0 0 0);
    }
    outlet
    {
        type            pressureInletOutletVelocity;
        value           uniform (-0.00196138 0 0);
    }
    defaultFaces
    {
        type            empty;
    }
}


// ************************************************************************* //
