/*--------------------------------*- C++ -*----------------------------------*\
| =========                 |                                                 |
| \\      /  F ield         | OpenFOAM: The Open Source CFD Toolbox           |
|  \\    /   O peration     | Version:  2406                                  |
|   \\  /    A nd           | Website:  www.openfoam.com                      |
|    \\/     M anipulation  |                                                 |
\*---------------------------------------------------------------------------*/
FoamFile
{
    version     2.0;
    format      ascii;
    arch        "LSB;label=32;scalar=64";
    class       volScalarField;
    location    "10.3";
    object      O2;
}
// * * * * * * * * * * * * * * * * * * * * * * * * * * * * * * * * * * * * * //

dimensions      [0 0 0 0 0 0 0];

internalField   nonuniform List<scalar> 
1000
(
1.14321e-06
1.1413e-06
1.13784e-06
1.13308e-06
1.12721e-06
1.12036e-06
1.11267e-06
1.10422e-06
1.0951e-06
1.08538e-06
1.07511e-06
1.06436e-06
1.05317e-06
1.04159e-06
1.02964e-06
1.01736e-06
1.00479e-06
9.9196e-07
9.7889e-07
9.65608e-07
9.52138e-07
9.38502e-07
9.24721e-07
9.10815e-07
8.96804e-07
8.82706e-07
8.68538e-07
8.54318e-07
8.40062e-07
8.25786e-07
8.11506e-07
7.97236e-07
7.82993e-07
7.68789e-07
7.5464e-07
7.40558e-07
7.26557e-07
7.1265e-07
6.98849e-07
6.85167e-07
6.71615e-07
6.58204e-07
6.44945e-07
6.31848e-07
6.18923e-07
6.06178e-07
5.93622e-07
5.81263e-07
5.69109e-07
5.57165e-07
5.45439e-07
5.33935e-07
5.22658e-07
5.11613e-07
5.00803e-07
4.90231e-07
4.799e-07
4.69811e-07
4.59966e-07
4.50366e-07
4.41011e-07
4.319e-07
4.23034e-07
4.1441e-07
4.06029e-07
3.97887e-07
3.89983e-07
3.82314e-07
3.74877e-07
3.6767e-07
3.60689e-07
3.5393e-07
3.4739e-07
3.41064e-07
3.34949e-07
3.29041e-07
3.23335e-07
3.17827e-07
3.12512e-07
3.07386e-07
3.02444e-07
2.97681e-07
2.93094e-07
2.88677e-07
2.84425e-07
2.80335e-07
2.76401e-07
2.72619e-07
2.68984e-07
2.65493e-07
2.6214e-07
2.58921e-07
2.55832e-07
2.5287e-07
2.50029e-07
2.47306e-07
2.44696e-07
2.42197e-07
2.39804e-07
2.37513e-07
2.35321e-07
2.33225e-07
2.31221e-07
2.29305e-07
2.27475e-07
2.25727e-07
2.24058e-07
2.22466e-07
2.20947e-07
2.19499e-07
2.18119e-07
2.16804e-07
2.15551e-07
2.1436e-07
2.13226e-07
2.12148e-07
2.11123e-07
2.10149e-07
2.09225e-07
2.08349e-07
2.07517e-07
2.06729e-07
2.05983e-07
2.05276e-07
2.04608e-07
2.03977e-07
2.03381e-07
2.02819e-07
2.02288e-07
2.01789e-07
2.0132e-07
2.00878e-07
2.00464e-07
2.00075e-07
1.99712e-07
1.99372e-07
1.99054e-07
1.98759e-07
1.98484e-07
1.98229e-07
1.97993e-07
1.97774e-07
1.97573e-07
1.97389e-07
1.9722e-07
1.97066e-07
1.96927e-07
1.96801e-07
1.96689e-07
1.96588e-07
1.965e-07
1.96423e-07
1.96357e-07
1.96301e-07
1.96255e-07
1.96218e-07
1.96191e-07
1.96171e-07
1.9616e-07
1.96156e-07
1.9616e-07
1.96171e-07
1.96188e-07
1.96212e-07
1.96241e-07
1.96277e-07
1.96318e-07
1.96364e-07
1.96415e-07
1.96471e-07
1.96531e-07
1.96596e-07
1.96665e-07
1.96737e-07
1.96813e-07
1.96893e-07
1.96976e-07
1.97062e-07
1.97151e-07
1.97243e-07
1.97338e-07
1.97435e-07
1.97535e-07
1.97637e-07
1.97741e-07
1.97847e-07
1.97956e-07
1.98066e-07
1.98178e-07
1.98292e-07
1.98407e-07
1.98525e-07
1.98643e-07
1.98763e-07
1.98884e-07
1.99007e-07
1.9913e-07
1.99255e-07
1.99381e-07
1.99508e-07
1.99636e-07
1.99765e-07
1.99895e-07
2.00026e-07
2.00158e-07
2.0029e-07
2.00423e-07
2.00557e-07
2.00692e-07
2.00827e-07
2.00963e-07
2.01099e-07
2.01236e-07
2.01374e-07
2.01512e-07
2.0165e-07
2.01789e-07
2.01929e-07
2.02069e-07
2.02209e-07
2.0235e-07
2.02491e-07
2.02633e-07
2.02775e-07
2.02917e-07
2.0306e-07
2.03203e-07
2.03347e-07
2.0349e-07
2.03634e-07
2.03778e-07
2.03923e-07
2.04068e-07
2.04213e-07
2.04358e-07
2.04504e-07
2.0465e-07
2.04796e-07
2.04942e-07
2.05089e-07
2.05236e-07
2.05383e-07
2.05529e-07
2.05677e-07
2.05825e-07
2.05973e-07
2.06121e-07
2.0627e-07
2.06418e-07
2.06567e-07
2.06716e-07
2.06865e-07
2.07015e-07
2.07164e-07
2.07314e-07
2.07464e-07
2.07614e-07
2.07764e-07
2.07915e-07
2.08066e-07
2.08217e-07
2.08368e-07
2.08519e-07
2.0867e-07
2.08822e-07
2.08974e-07
2.09126e-07
2.09278e-07
2.0943e-07
2.09582e-07
2.09735e-07
2.09888e-07
2.10041e-07
2.10194e-07
2.10347e-07
2.10501e-07
2.10655e-07
2.10808e-07
2.10962e-07
2.11117e-07
2.11271e-07
2.11426e-07
2.1158e-07
2.11735e-07
2.1189e-07
2.12046e-07
2.12201e-07
2.12357e-07
2.12513e-07
2.12669e-07
2.12825e-07
2.12981e-07
2.13138e-07
2.13295e-07
2.13451e-07
2.13609e-07
2.13766e-07
2.13923e-07
2.14081e-07
2.14239e-07
2.14396e-07
2.14554e-07
2.14712e-07
2.14871e-07
2.1503e-07
2.15189e-07
2.15348e-07
2.15508e-07
2.15667e-07
2.15827e-07
2.15987e-07
2.16147e-07
2.16308e-07
2.16468e-07
2.16629e-07
2.1679e-07
2.16951e-07
2.17113e-07
2.17274e-07
2.17436e-07
2.17598e-07
2.17761e-07
2.17923e-07
2.18086e-07
2.18249e-07
2.18412e-07
2.18575e-07
2.18739e-07
2.18903e-07
2.19067e-07
2.19231e-07
2.19396e-07
2.1956e-07
2.19725e-07
2.19891e-07
2.20056e-07
2.20222e-07
2.20388e-07
2.20554e-07
2.2072e-07
2.20887e-07
2.21053e-07
2.21221e-07
2.21388e-07
2.21556e-07
2.21723e-07
2.21891e-07
2.2206e-07
2.22228e-07
2.22397e-07
2.22566e-07
2.22736e-07
2.22905e-07
2.23075e-07
2.23245e-07
2.23416e-07
2.23586e-07
2.23757e-07
2.23928e-07
2.241e-07
2.24271e-07
2.24443e-07
2.24616e-07
2.24788e-07
2.24961e-07
2.25134e-07
2.25307e-07
2.25481e-07
2.25655e-07
2.25829e-07
2.26004e-07
2.26178e-07
2.26353e-07
2.26529e-07
2.26704e-07
2.2688e-07
2.27056e-07
2.27233e-07
2.27409e-07
2.27586e-07
2.27764e-07
2.27941e-07
2.28119e-07
2.28297e-07
2.28476e-07
2.28654e-07
2.28833e-07
2.29013e-07
2.29192e-07
2.29372e-07
2.29552e-07
2.29733e-07
2.29914e-07
2.30095e-07
2.30276e-07
2.30458e-07
2.3064e-07
2.30822e-07
2.31005e-07
2.31188e-07
2.31371e-07
2.31554e-07
2.31738e-07
2.31922e-07
2.32107e-07
2.32291e-07
2.32476e-07
2.32661e-07
2.32847e-07
2.33033e-07
2.33219e-07
2.33406e-07
2.33592e-07
2.33779e-07
2.33967e-07
2.34155e-07
2.34343e-07
2.34531e-07
2.3472e-07
2.34908e-07
2.35098e-07
2.35287e-07
2.35477e-07
2.35667e-07
2.35858e-07
2.36048e-07
2.36239e-07
2.36431e-07
2.36622e-07
2.36814e-07
2.37007e-07
2.37199e-07
2.37392e-07
2.37585e-07
2.37779e-07
2.37973e-07
2.38167e-07
2.38362e-07
2.38556e-07
2.38751e-07
2.38947e-07
2.39143e-07
2.39339e-07
2.39535e-07
2.39732e-07
2.39929e-07
2.40126e-07
2.40324e-07
2.40522e-07
2.4072e-07
2.40919e-07
2.41118e-07
2.41317e-07
2.41516e-07
2.41716e-07
2.41917e-07
2.42117e-07
2.42318e-07
2.42519e-07
2.42721e-07
2.42923e-07
2.43125e-07
2.43328e-07
2.4353e-07
2.43734e-07
2.43937e-07
2.44141e-07
2.44345e-07
2.4455e-07
2.44755e-07
2.4496e-07
2.45166e-07
2.45372e-07
2.45578e-07
2.45785e-07
2.45992e-07
2.46199e-07
2.46407e-07
2.46615e-07
2.46823e-07
2.47032e-07
2.47241e-07
2.47451e-07
2.47661e-07
2.47871e-07
2.48081e-07
2.48292e-07
2.48504e-07
2.48715e-07
2.48927e-07
2.4914e-07
2.49352e-07
2.49565e-07
2.49779e-07
2.49993e-07
2.50207e-07
2.50422e-07
2.50636e-07
2.50852e-07
2.51068e-07
2.51284e-07
2.515e-07
2.51717e-07
2.51934e-07
2.52152e-07
2.5237e-07
2.52588e-07
2.52807e-07
2.53026e-07
2.53245e-07
2.53465e-07
2.53685e-07
2.53906e-07
2.54127e-07
2.54348e-07
2.5457e-07
2.54792e-07
2.55015e-07
2.55238e-07
2.55461e-07
2.55685e-07
2.55909e-07
2.56134e-07
2.56359e-07
2.56584e-07
2.5681e-07
2.57036e-07
2.57263e-07
2.5749e-07
2.57717e-07
2.57945e-07
2.58173e-07
2.58401e-07
2.5863e-07
2.5886e-07
2.59089e-07
2.5932e-07
2.5955e-07
2.59781e-07
2.60013e-07
2.60244e-07
2.60477e-07
2.60709e-07
2.60942e-07
2.61176e-07
2.6141e-07
2.61644e-07
2.61879e-07
2.62114e-07
2.62349e-07
2.62585e-07
2.62821e-07
2.63058e-07
2.63295e-07
2.63533e-07
2.63771e-07
2.6401e-07
2.64248e-07
2.64488e-07
2.64728e-07
2.64968e-07
2.65208e-07
2.65449e-07
2.65691e-07
2.65933e-07
2.66175e-07
2.66418e-07
2.66661e-07
2.66905e-07
2.67149e-07
2.67393e-07
2.67638e-07
2.67883e-07
2.68129e-07
2.68375e-07
2.68622e-07
2.68869e-07
2.69117e-07
2.69365e-07
2.69614e-07
2.69863e-07
2.70112e-07
2.70362e-07
2.70612e-07
2.70863e-07
2.71114e-07
2.71366e-07
2.71618e-07
2.71871e-07
2.72124e-07
2.72377e-07
2.72632e-07
2.72886e-07
2.73141e-07
2.73397e-07
2.73653e-07
2.73909e-07
2.74166e-07
2.74423e-07
2.74681e-07
2.7494e-07
2.75199e-07
2.75458e-07
2.75718e-07
2.75978e-07
2.76239e-07
2.765e-07
2.76762e-07
2.77025e-07
2.77288e-07
2.77551e-07
2.77815e-07
2.78079e-07
2.78344e-07
2.7861e-07
2.78876e-07
2.79142e-07
2.79409e-07
2.79676e-07
2.79945e-07
2.80213e-07
2.80482e-07
2.80752e-07
2.8102e-07
2.81291e-07
2.81562e-07
2.81834e-07
2.82106e-07
2.82379e-07
2.82652e-07
2.82926e-07
2.83201e-07
2.83476e-07
2.83751e-07
2.84027e-07
2.84304e-07
2.84581e-07
2.84859e-07
2.85137e-07
2.85416e-07
2.85696e-07
2.85976e-07
2.86256e-07
2.86537e-07
2.86819e-07
2.87101e-07
2.87384e-07
2.87667e-07
2.87951e-07
2.88236e-07
2.88521e-07
2.88807e-07
2.89093e-07
2.8938e-07
2.89667e-07
2.89955e-07
2.90244e-07
2.90533e-07
2.90822e-07
2.91113e-07
2.91403e-07
2.91695e-07
2.91987e-07
2.9228e-07
2.92573e-07
2.92866e-07
2.93161e-07
2.93456e-07
2.93751e-07
2.94047e-07
2.94344e-07
2.94641e-07
2.94939e-07
2.95238e-07
2.95537e-07
2.95836e-07
2.96137e-07
2.96438e-07
2.96739e-07
2.97041e-07
2.97342e-07
2.97644e-07
2.97948e-07
2.98252e-07
2.98557e-07
2.98862e-07
2.99169e-07
2.99475e-07
2.99783e-07
3.00091e-07
3.00399e-07
3.00708e-07
3.01018e-07
3.01328e-07
3.01639e-07
3.01951e-07
3.02263e-07
3.02576e-07
3.02889e-07
3.03203e-07
3.03518e-07
3.03833e-07
3.04149e-07
3.04466e-07
3.04783e-07
3.05101e-07
3.05419e-07
3.05738e-07
3.06058e-07
3.06379e-07
3.067e-07
3.07021e-07
3.07344e-07
3.07667e-07
3.0799e-07
3.08315e-07
3.0864e-07
3.08965e-07
3.09292e-07
3.09619e-07
3.09946e-07
3.10275e-07
3.10604e-07
3.10934e-07
3.11264e-07
3.11595e-07
3.11927e-07
3.1226e-07
3.12593e-07
3.12927e-07
3.13262e-07
3.13597e-07
3.13934e-07
3.14271e-07
3.14608e-07
3.14947e-07
3.15286e-07
3.15626e-07
3.15967e-07
3.16308e-07
3.1665e-07
3.16993e-07
3.17337e-07
3.17682e-07
3.18027e-07
3.18373e-07
3.1872e-07
3.19068e-07
3.19417e-07
3.19765e-07
3.20113e-07
3.20464e-07
3.20816e-07
3.21169e-07
3.21522e-07
3.21876e-07
3.22231e-07
3.22587e-07
3.22944e-07
3.23302e-07
3.2366e-07
3.2402e-07
3.2438e-07
3.24741e-07
3.25103e-07
3.25466e-07
3.25829e-07
3.26193e-07
3.26557e-07
3.26923e-07
3.27289e-07
3.27657e-07
3.28026e-07
3.28395e-07
3.28765e-07
3.29136e-07
3.29508e-07
3.29881e-07
3.30255e-07
3.3063e-07
3.31005e-07
3.31382e-07
3.31759e-07
3.32137e-07
3.32516e-07
3.32896e-07
3.33277e-07
3.33658e-07
3.34041e-07
3.34424e-07
3.34809e-07
3.35194e-07
3.3558e-07
3.35967e-07
3.36355e-07
3.36744e-07
3.37133e-07
3.37524e-07
3.37915e-07
3.38308e-07
3.38701e-07
3.39096e-07
3.39491e-07
3.39887e-07
3.40285e-07
3.40683e-07
3.41082e-07
3.41482e-07
3.41883e-07
3.42286e-07
3.42689e-07
3.43094e-07
3.43499e-07
3.43906e-07
3.44313e-07
3.44722e-07
3.45132e-07
3.45544e-07
3.45956e-07
3.4637e-07
3.46786e-07
3.47202e-07
3.47621e-07
3.4804e-07
3.48461e-07
3.48884e-07
3.49309e-07
3.49735e-07
3.50163e-07
3.50593e-07
3.51026e-07
3.5146e-07
3.51897e-07
3.52336e-07
3.52777e-07
3.53222e-07
3.53669e-07
3.54119e-07
3.54573e-07
3.5503e-07
3.55491e-07
3.55955e-07
3.56424e-07
3.56898e-07
3.57376e-07
3.5786e-07
3.58349e-07
3.58844e-07
3.59345e-07
3.59853e-07
3.60369e-07
3.60892e-07
3.61424e-07
3.61965e-07
3.62516e-07
3.63077e-07
3.63649e-07
3.64234e-07
3.64832e-07
3.65444e-07
3.66071e-07
3.66714e-07
3.67375e-07
3.68054e-07
3.68754e-07
3.69475e-07
3.70219e-07
3.70988e-07
3.71784e-07
3.72608e-07
3.73464e-07
3.74352e-07
3.75275e-07
3.76237e-07
3.77239e-07
3.78284e-07
3.79376e-07
3.80517e-07
3.81712e-07
3.82963e-07
3.84276e-07
3.85652e-07
3.87099e-07
3.88619e-07
3.90218e-07
3.919e-07
3.93672e-07
3.9554e-07
3.97509e-07
3.99586e-07
4.01777e-07
4.04091e-07
4.06534e-07
4.09115e-07
4.11842e-07
4.14723e-07
4.17769e-07
4.20988e-07
4.24391e-07
4.27989e-07
4.31793e-07
4.35814e-07
4.40065e-07
4.44558e-07
4.49306e-07
4.54323e-07
4.59624e-07
4.65224e-07
4.71136e-07
4.77378e-07
4.83966e-07
4.90916e-07
4.98246e-07
5.05973e-07
5.14116e-07
5.22694e-07
5.31724e-07
5.41228e-07
5.51223e-07
5.61731e-07
5.72769e-07
5.84359e-07
5.9652e-07
6.09272e-07
6.22634e-07
6.36623e-07
6.5126e-07
6.6656e-07
6.82541e-07
6.99216e-07
7.16601e-07
7.34706e-07
7.53541e-07
7.73115e-07
7.93431e-07
8.14492e-07
8.36296e-07
8.58838e-07
8.82108e-07
9.06092e-07
9.3077e-07
9.56117e-07
9.82103e-07
1.00869e-06
1.03583e-06
1.06348e-06
1.09156e-06
1.12003e-06
1.14879e-06
1.17776e-06
1.20684e-06
1.23593e-06
1.26492e-06
1.29367e-06
1.32206e-06
1.34995e-06
1.37717e-06
1.40357e-06
1.42898e-06
1.45323e-06
1.47614e-06
1.49752e-06
1.51718e-06
1.53494e-06
1.5506e-06
1.56397e-06
1.57487e-06
1.58312e-06
1.58852e-06
1.59088e-06
1.59011e-06
1.58601e-06
1.57845e-06
1.56729e-06
1.55241e-06
1.53371e-06
1.51109e-06
1.48448e-06
1.45381e-06
1.41906e-06
1.38018e-06
1.33718e-06
1.29007e-06
1.23889e-06
1.1837e-06
1.12458e-06
1.06166e-06
9.95082e-07
9.25035e-07
8.51745e-07
7.75489e-07
6.96597e-07
6.15462e-07
5.32551e-07
4.48417e-07
3.63712e-07
2.79202e-07
1.95786e-07
1.14511e-07
3.65876e-08
)
;

boundaryField
{
    fixedWall
    {
        type            zeroGradient;
    }
    outlet
    {
        type            inletOutlet;
        inletValue      uniform 0;
        value           uniform 0;
    }
    defaultFaces
    {
        type            empty;
    }
}


// ************************************************************************* //
