/*--------------------------------*- C++ -*----------------------------------*\
| =========                 |                                                 |
| \\      /  F ield         | OpenFOAM: The Open Source CFD Toolbox           |
|  \\    /   O peration     | Version:  2406                                  |
|   \\  /    A nd           | Website:  www.openfoam.com                      |
|    \\/     M anipulation  |                                                 |
\*---------------------------------------------------------------------------*/
FoamFile
{
    version     2.0;
    format      ascii;
    arch        "LSB;label=32;scalar=64";
    class       volScalarField;
    location    "10.3";
    object      T;
}
// * * * * * * * * * * * * * * * * * * * * * * * * * * * * * * * * * * * * * //

dimensions      [0 0 0 1 0 0 0];

internalField   nonuniform List<scalar> 
1000
(
305.671
329.03
350.662
370.841
389.776
407.626
424.519
440.559
455.832
470.409
484.351
497.712
510.534
522.859
534.721
546.149
557.172
567.813
578.094
588.035
597.654
606.967
615.989
624.732
633.21
641.435
649.416
657.163
664.687
671.995
679.095
685.994
692.701
699.221
705.561
711.726
717.722
723.554
729.228
734.748
740.119
745.344
750.429
755.377
760.192
764.877
769.437
773.874
778.191
782.393
786.481
790.459
794.329
798.095
801.758
805.322
808.789
812.162
815.442
818.632
821.734
824.75
827.683
830.534
833.306
836
838.618
841.162
843.635
846.036
848.37
850.636
852.837
854.974
857.049
859.063
861.019
862.916
864.758
866.544
868.277
869.958
871.588
873.168
874.701
876.186
877.625
879.02
880.371
881.68
882.948
884.175
885.363
886.514
887.627
888.704
889.746
890.754
891.729
892.672
893.583
894.464
895.315
896.137
896.932
897.699
898.439
899.155
899.845
900.511
901.154
901.773
902.371
902.948
903.504
904.039
904.555
905.053
905.532
905.993
906.437
906.864
907.276
907.671
908.052
908.418
908.77
909.109
909.434
909.747
910.047
910.335
910.612
910.878
911.133
911.378
911.613
911.838
912.054
912.261
912.46
912.65
912.832
913.007
913.174
913.334
913.487
913.633
913.774
913.908
914.036
914.158
914.275
914.386
914.493
914.595
914.692
914.785
914.873
914.958
915.038
915.115
915.189
915.259
915.325
915.388
915.449
915.506
915.561
915.613
915.662
915.709
915.754
915.796
915.837
915.875
915.911
915.946
915.979
916.01
916.039
916.067
916.093
916.118
916.142
916.165
916.186
916.206
916.225
916.243
916.26
916.276
916.291
916.305
916.318
916.331
916.343
916.354
916.365
916.374
916.384
916.392
916.401
916.408
916.416
916.422
916.429
916.435
916.44
916.445
916.45
916.455
916.459
916.463
916.466
916.47
916.473
916.476
916.478
916.481
916.483
916.485
916.487
916.489
916.49
916.492
916.493
916.494
916.495
916.496
916.497
916.498
916.499
916.499
916.5
916.5
916.5
916.501
916.501
916.501
916.501
916.501
916.501
916.501
916.501
916.501
916.501
916.501
916.501
916.501
916.501
916.5
916.5
916.5
916.5
916.5
916.499
916.499
916.499
916.498
916.498
916.498
916.498
916.497
916.497
916.497
916.496
916.496
916.496
916.495
916.495
916.495
916.495
916.494
916.494
916.494
916.494
916.493
916.493
916.493
916.493
916.493
916.492
916.492
916.492
916.492
916.492
916.492
916.491
916.491
916.491
916.491
916.491
916.491
916.491
916.491
916.491
916.491
916.491
916.491
916.491
916.491
916.491
916.491
916.491
916.491
916.491
916.491
916.491
916.491
916.491
916.491
916.491
916.491
916.492
916.492
916.492
916.492
916.492
916.492
916.492
916.493
916.493
916.493
916.493
916.493
916.494
916.494
916.494
916.494
916.494
916.495
916.495
916.495
916.495
916.496
916.496
916.496
916.496
916.497
916.497
916.497
916.497
916.498
916.498
916.498
916.498
916.499
916.499
916.499
916.5
916.5
916.5
916.5
916.501
916.501
916.501
916.501
916.502
916.502
916.502
916.502
916.503
916.503
916.503
916.503
916.504
916.504
916.504
916.504
916.505
916.505
916.505
916.505
916.506
916.506
916.506
916.506
916.506
916.507
916.507
916.507
916.507
916.507
916.508
916.508
916.508
916.508
916.508
916.508
916.509
916.509
916.509
916.509
916.509
916.509
916.509
916.51
916.51
916.51
916.51
916.51
916.51
916.51
916.51
916.51
916.511
916.511
916.511
916.511
916.511
916.511
916.511
916.511
916.511
916.511
916.511
916.512
916.512
916.512
916.512
916.512
916.512
916.512
916.512
916.512
916.512
916.512
916.512
916.512
916.512
916.512
916.512
916.513
916.513
916.513
916.513
916.513
916.513
916.513
916.513
916.513
916.513
916.513
916.513
916.513
916.513
916.513
916.513
916.513
916.513
916.513
916.513
916.513
916.513
916.513
916.514
916.514
916.514
916.514
916.514
916.514
916.514
916.514
916.514
916.514
916.514
916.514
916.514
916.514
916.514
916.514
916.514
916.514
916.514
916.514
916.514
916.514
916.514
916.514
916.514
916.514
916.514
916.514
916.515
916.515
916.515
916.515
916.515
916.515
916.515
916.515
916.515
916.515
916.515
916.515
916.515
916.515
916.515
916.515
916.515
916.515
916.515
916.515
916.515
916.515
916.515
916.515
916.515
916.515
916.515
916.515
916.515
916.515
916.515
916.515
916.515
916.515
916.515
916.515
916.515
916.515
916.515
916.515
916.515
916.515
916.515
916.515
916.515
916.515
916.515
916.515
916.515
916.515
916.515
916.515
916.515
916.515
916.515
916.515
916.515
916.515
916.515
916.515
916.515
916.515
916.515
916.515
916.515
916.516
916.516
916.516
916.516
916.516
916.516
916.516
916.516
916.516
916.516
916.516
916.516
916.516
916.516
916.516
916.516
916.516
916.516
916.516
916.516
916.516
916.516
916.516
916.516
916.516
916.516
916.516
916.517
916.517
916.517
916.517
916.517
916.517
916.517
916.517
916.517
916.517
916.517
916.517
916.517
916.517
916.517
916.517
916.517
916.517
916.517
916.518
916.518
916.518
916.518
916.518
916.518
916.518
916.518
916.518
916.518
916.518
916.518
916.518
916.518
916.518
916.518
916.518
916.518
916.518
916.518
916.518
916.518
916.518
916.518
916.518
916.518
916.518
916.518
916.518
916.518
916.518
916.518
916.518
916.518
916.518
916.518
916.518
916.518
916.518
916.518
916.518
916.518
916.518
916.518
916.518
916.518
916.518
916.518
916.518
916.518
916.518
916.518
916.518
916.518
916.518
916.518
916.518
916.518
916.517
916.517
916.517
916.517
916.517
916.517
916.517
916.517
916.517
916.517
916.517
916.517
916.517
916.517
916.517
916.517
916.517
916.517
916.517
916.517
916.517
916.517
916.517
916.517
916.517
916.517
916.517
916.517
916.517
916.517
916.517
916.517
916.517
916.517
916.517
916.517
916.517
916.517
916.517
916.517
916.517
916.517
916.517
916.517
916.517
916.517
916.517
916.517
916.517
916.518
916.518
916.518
916.518
916.518
916.518
916.518
916.518
916.518
916.518
916.518
916.519
916.519
916.519
916.519
916.519
916.519
916.519
916.519
916.519
916.52
916.52
916.52
916.52
916.52
916.52
916.52
916.52
916.52
916.521
916.521
916.521
916.521
916.521
916.521
916.521
916.521
916.521
916.521
916.521
916.521
916.521
916.521
916.521
916.521
916.521
916.521
916.522
916.522
916.521
916.521
916.521
916.521
916.521
916.521
916.521
916.521
916.521
916.521
916.521
916.521
916.521
916.521
916.521
916.521
916.52
916.52
916.52
916.52
916.52
916.52
916.519
916.519
916.519
916.519
916.519
916.519
916.518
916.518
916.518
916.518
916.517
916.517
916.517
916.517
916.516
916.516
916.516
916.515
916.515
916.515
916.514
916.514
916.513
916.513
916.513
916.512
916.512
916.511
916.51
916.51
916.509
916.508
916.508
916.507
916.506
916.505
916.504
916.503
916.502
916.501
916.499
916.498
916.496
916.495
916.493
916.491
916.489
916.486
916.484
916.481
916.478
916.474
916.471
916.467
916.463
916.458
916.453
916.448
916.442
916.435
916.428
916.421
916.412
916.404
916.394
916.383
916.372
916.36
916.347
916.332
916.317
916.3
916.282
916.262
916.241
916.218
916.194
916.167
916.139
916.108
916.075
916.04
916.002
915.961
915.917
915.869
915.819
915.765
915.706
915.644
915.577
915.506
915.43
915.348
915.261
915.168
915.069
914.964
914.851
914.731
914.604
914.468
914.324
914.17
914.007
913.834
913.651
913.456
913.25
913.031
912.8
912.556
912.297
912.024
911.735
911.43
911.108
910.769
910.412
910.035
909.639
909.222
908.783
908.322
907.838
907.329
906.796
906.236
905.649
905.034
904.39
903.716
903.011
902.273
901.502
900.697
899.856
898.978
898.062
897.107
896.112
895.075
893.994
892.87
891.7
890.483
889.218
887.903
886.536
885.117
883.644
882.115
880.528
878.882
877.176
875.407
873.573
871.674
869.706
867.668
865.558
863.374
861.113
858.773
856.352
853.847
851.256
848.576
845.804
842.937
839.972
836.905
833.734
830.454
827.062
823.554
819.924
816.17
812.286
808.267
804.108
799.804
795.348
790.734
785.956
781.006
775.878
770.564
765.055
759.343
753.418
747.272
740.894
734.274
727.4
720.263
712.928
705.229
697.224
688.899
680.239
671.229
661.854
652.099
641.947
631.382
620.387
608.946
597.042
584.661
571.789
558.412
544.521
530.107
515.166
499.698
483.707
467.206
450.212
432.753
414.865
396.597
378.009
359.18
340.202
321.19
302.281
)
;

boundaryField
{
    fixedWall
    {
        type            fixedValue;
        value           uniform 293;
    }
    outlet
    {
        type            inletOutlet;
        inletValue      uniform 293;
        value           uniform 293;
    }
    defaultFaces
    {
        type            empty;
    }
}


// ************************************************************************* //
