/*--------------------------------*- C++ -*----------------------------------*\
| =========                 |                                                 |
| \\      /  F ield         | OpenFOAM: The Open Source CFD Toolbox           |
|  \\    /   O peration     | Version:  2406                                  |
|   \\  /    A nd           | Website:  www.openfoam.com                      |
|    \\/     M anipulation  |                                                 |
\*---------------------------------------------------------------------------*/
FoamFile
{
    version     2.0;
    format      ascii;
    arch        "LSB;label=32;scalar=64";
    class       volScalarField;
    location    "12";
    object      O2;
}
// * * * * * * * * * * * * * * * * * * * * * * * * * * * * * * * * * * * * * //

dimensions      [0 0 0 0 0 0 0];

internalField   nonuniform List<scalar> 
1000
(
1.07436e-06
1.07274e-06
1.06978e-06
1.06569e-06
1.06062e-06
1.0547e-06
1.04802e-06
1.04067e-06
1.03272e-06
1.02423e-06
1.01525e-06
1.00584e-06
9.96016e-07
9.85833e-07
9.75319e-07
9.64505e-07
9.53419e-07
9.42086e-07
9.3053e-07
9.18773e-07
9.06836e-07
8.94737e-07
8.82496e-07
8.7013e-07
8.57655e-07
8.45086e-07
8.32439e-07
8.19729e-07
8.06968e-07
7.94171e-07
7.8135e-07
7.68518e-07
7.55688e-07
7.42871e-07
7.30078e-07
7.17322e-07
7.04613e-07
6.91963e-07
6.7938e-07
6.66876e-07
6.5446e-07
6.42142e-07
6.29931e-07
6.17836e-07
6.05865e-07
5.94027e-07
5.82328e-07
5.70777e-07
5.59381e-07
5.48145e-07
5.37076e-07
5.2618e-07
5.15461e-07
5.04924e-07
4.94574e-07
4.84414e-07
4.74448e-07
4.64679e-07
4.55109e-07
4.4574e-07
4.36573e-07
4.27611e-07
4.18854e-07
4.10302e-07
4.01956e-07
3.93814e-07
3.85878e-07
3.78145e-07
3.70615e-07
3.63285e-07
3.56156e-07
3.49223e-07
3.42487e-07
3.35943e-07
3.29589e-07
3.23423e-07
3.17442e-07
3.11642e-07
3.06022e-07
3.00576e-07
2.95303e-07
2.90198e-07
2.85259e-07
2.80481e-07
2.75861e-07
2.71395e-07
2.67081e-07
2.62913e-07
2.5889e-07
2.55006e-07
2.51258e-07
2.47643e-07
2.44157e-07
2.40797e-07
2.37559e-07
2.34439e-07
2.31435e-07
2.28542e-07
2.25758e-07
2.23079e-07
2.20501e-07
2.18023e-07
2.1564e-07
2.13351e-07
2.1115e-07
2.09037e-07
2.07008e-07
2.05059e-07
2.0319e-07
2.01396e-07
1.99675e-07
1.98025e-07
1.96444e-07
1.94928e-07
1.93477e-07
1.92086e-07
1.90755e-07
1.89481e-07
1.88262e-07
1.87096e-07
1.85981e-07
1.84916e-07
1.83898e-07
1.82925e-07
1.81997e-07
1.81111e-07
1.80266e-07
1.7946e-07
1.78691e-07
1.77959e-07
1.77262e-07
1.76598e-07
1.75967e-07
1.75366e-07
1.74796e-07
1.74253e-07
1.73739e-07
1.7325e-07
1.72787e-07
1.72349e-07
1.71933e-07
1.7154e-07
1.71169e-07
1.70818e-07
1.70487e-07
1.70175e-07
1.69881e-07
1.69604e-07
1.69345e-07
1.69101e-07
1.68872e-07
1.68659e-07
1.68459e-07
1.68273e-07
1.681e-07
1.67939e-07
1.6779e-07
1.67652e-07
1.67526e-07
1.67409e-07
1.67303e-07
1.67206e-07
1.67119e-07
1.6704e-07
1.66969e-07
1.66906e-07
1.66851e-07
1.66804e-07
1.66763e-07
1.66729e-07
1.66701e-07
1.6668e-07
1.66664e-07
1.66654e-07
1.66649e-07
1.66649e-07
1.66654e-07
1.66663e-07
1.66677e-07
1.66695e-07
1.66717e-07
1.66743e-07
1.66773e-07
1.66806e-07
1.66843e-07
1.66883e-07
1.66926e-07
1.66971e-07
1.6702e-07
1.67071e-07
1.67124e-07
1.6718e-07
1.67239e-07
1.67299e-07
1.67362e-07
1.67426e-07
1.67493e-07
1.67561e-07
1.67631e-07
1.67702e-07
1.67776e-07
1.6785e-07
1.67926e-07
1.68004e-07
1.68082e-07
1.68162e-07
1.68244e-07
1.68326e-07
1.68409e-07
1.68493e-07
1.68579e-07
1.68665e-07
1.68752e-07
1.6884e-07
1.68929e-07
1.69018e-07
1.69109e-07
1.69199e-07
1.69291e-07
1.69383e-07
1.69476e-07
1.69569e-07
1.69663e-07
1.69758e-07
1.69853e-07
1.69948e-07
1.70044e-07
1.7014e-07
1.70237e-07
1.70334e-07
1.70432e-07
1.7053e-07
1.70628e-07
1.70727e-07
1.70826e-07
1.70925e-07
1.71024e-07
1.71124e-07
1.71224e-07
1.71325e-07
1.71425e-07
1.71526e-07
1.71627e-07
1.71728e-07
1.7183e-07
1.71932e-07
1.72034e-07
1.72136e-07
1.72238e-07
1.72341e-07
1.72443e-07
1.72546e-07
1.72649e-07
1.72752e-07
1.72856e-07
1.72959e-07
1.73063e-07
1.73167e-07
1.73271e-07
1.73375e-07
1.73479e-07
1.73583e-07
1.73688e-07
1.73793e-07
1.73897e-07
1.74002e-07
1.74107e-07
1.74212e-07
1.74318e-07
1.74423e-07
1.74528e-07
1.74634e-07
1.7474e-07
1.74846e-07
1.74951e-07
1.75057e-07
1.75163e-07
1.75269e-07
1.75376e-07
1.75482e-07
1.75589e-07
1.75696e-07
1.75802e-07
1.75909e-07
1.76016e-07
1.76124e-07
1.76231e-07
1.76338e-07
1.76446e-07
1.76553e-07
1.76661e-07
1.76769e-07
1.76876e-07
1.76984e-07
1.77092e-07
1.772e-07
1.77308e-07
1.77416e-07
1.77525e-07
1.77633e-07
1.77742e-07
1.77851e-07
1.7796e-07
1.78069e-07
1.78178e-07
1.78287e-07
1.78396e-07
1.78506e-07
1.78615e-07
1.78725e-07
1.78834e-07
1.78944e-07
1.79054e-07
1.79164e-07
1.79274e-07
1.79385e-07
1.79495e-07
1.79606e-07
1.79716e-07
1.79827e-07
1.79938e-07
1.80049e-07
1.8016e-07
1.80271e-07
1.80383e-07
1.80494e-07
1.80606e-07
1.80718e-07
1.80829e-07
1.80941e-07
1.81053e-07
1.81166e-07
1.81278e-07
1.8139e-07
1.81503e-07
1.81616e-07
1.81729e-07
1.81842e-07
1.81955e-07
1.82068e-07
1.82182e-07
1.82295e-07
1.82409e-07
1.82522e-07
1.82636e-07
1.8275e-07
1.82865e-07
1.82979e-07
1.83094e-07
1.83208e-07
1.83323e-07
1.83438e-07
1.83553e-07
1.83668e-07
1.83783e-07
1.83899e-07
1.84015e-07
1.8413e-07
1.84246e-07
1.84362e-07
1.84479e-07
1.84595e-07
1.84711e-07
1.84828e-07
1.84945e-07
1.85062e-07
1.85179e-07
1.85296e-07
1.85414e-07
1.85531e-07
1.85649e-07
1.85767e-07
1.85885e-07
1.86003e-07
1.86121e-07
1.8624e-07
1.86359e-07
1.86477e-07
1.86596e-07
1.86715e-07
1.86835e-07
1.86954e-07
1.87074e-07
1.87194e-07
1.87313e-07
1.87434e-07
1.87554e-07
1.87674e-07
1.87795e-07
1.87915e-07
1.88036e-07
1.88157e-07
1.88279e-07
1.884e-07
1.88522e-07
1.88643e-07
1.88765e-07
1.88887e-07
1.89009e-07
1.89132e-07
1.89254e-07
1.89377e-07
1.895e-07
1.89623e-07
1.89746e-07
1.89869e-07
1.89993e-07
1.90116e-07
1.9024e-07
1.90364e-07
1.90488e-07
1.90613e-07
1.90737e-07
1.90862e-07
1.90987e-07
1.91112e-07
1.91237e-07
1.91362e-07
1.91488e-07
1.91613e-07
1.91739e-07
1.91865e-07
1.91991e-07
1.92118e-07
1.92244e-07
1.92371e-07
1.92498e-07
1.92625e-07
1.92752e-07
1.92879e-07
1.93006e-07
1.93134e-07
1.93262e-07
1.9339e-07
1.93518e-07
1.93647e-07
1.93775e-07
1.93904e-07
1.94033e-07
1.94162e-07
1.94291e-07
1.9442e-07
1.9455e-07
1.9468e-07
1.9481e-07
1.9494e-07
1.9507e-07
1.952e-07
1.95331e-07
1.95462e-07
1.95593e-07
1.95724e-07
1.95855e-07
1.95987e-07
1.96118e-07
1.9625e-07
1.96382e-07
1.96514e-07
1.96647e-07
1.96779e-07
1.96912e-07
1.97045e-07
1.97178e-07
1.97311e-07
1.97445e-07
1.97578e-07
1.97712e-07
1.97846e-07
1.9798e-07
1.98114e-07
1.98249e-07
1.98384e-07
1.98518e-07
1.98653e-07
1.98789e-07
1.98924e-07
1.9906e-07
1.99196e-07
1.99332e-07
1.99468e-07
1.99604e-07
1.99741e-07
1.99878e-07
2.00014e-07
2.00152e-07
2.00289e-07
2.00426e-07
2.00564e-07
2.00702e-07
2.0084e-07
2.00978e-07
2.01117e-07
2.01255e-07
2.01394e-07
2.01533e-07
2.01672e-07
2.01812e-07
2.01952e-07
2.02091e-07
2.02231e-07
2.02372e-07
2.02512e-07
2.02653e-07
2.02793e-07
2.02934e-07
2.03076e-07
2.03217e-07
2.03358e-07
2.035e-07
2.03642e-07
2.03784e-07
2.03927e-07
2.04069e-07
2.04212e-07
2.04355e-07
2.04498e-07
2.04642e-07
2.04785e-07
2.04929e-07
2.05073e-07
2.05217e-07
2.05362e-07
2.05506e-07
2.05651e-07
2.05796e-07
2.05941e-07
2.06087e-07
2.06232e-07
2.06378e-07
2.06524e-07
2.0667e-07
2.06817e-07
2.06963e-07
2.0711e-07
2.07257e-07
2.07404e-07
2.07552e-07
2.077e-07
2.07847e-07
2.07996e-07
2.08144e-07
2.08292e-07
2.08441e-07
2.0859e-07
2.08739e-07
2.08888e-07
2.09038e-07
2.09188e-07
2.09338e-07
2.09488e-07
2.09638e-07
2.09789e-07
2.0994e-07
2.10091e-07
2.10242e-07
2.10394e-07
2.10545e-07
2.10697e-07
2.10849e-07
2.11002e-07
2.11154e-07
2.11307e-07
2.1146e-07
2.11613e-07
2.11767e-07
2.1192e-07
2.12074e-07
2.12228e-07
2.12383e-07
2.12537e-07
2.12692e-07
2.12847e-07
2.13002e-07
2.13158e-07
2.13313e-07
2.13469e-07
2.13625e-07
2.13782e-07
2.13938e-07
2.14095e-07
2.14252e-07
2.14409e-07
2.14567e-07
2.14725e-07
2.14882e-07
2.15041e-07
2.15199e-07
2.15358e-07
2.15517e-07
2.15676e-07
2.15835e-07
2.15995e-07
2.16155e-07
2.16315e-07
2.16475e-07
2.16635e-07
2.16796e-07
2.16957e-07
2.17119e-07
2.1728e-07
2.17442e-07
2.17604e-07
2.17766e-07
2.17929e-07
2.18091e-07
2.18254e-07
2.18418e-07
2.18581e-07
2.18745e-07
2.18909e-07
2.19073e-07
2.19237e-07
2.19402e-07
2.19567e-07
2.19732e-07
2.19898e-07
2.20064e-07
2.2023e-07
2.20396e-07
2.20562e-07
2.20729e-07
2.20896e-07
2.21064e-07
2.21231e-07
2.21397e-07
2.21566e-07
2.21734e-07
2.21903e-07
2.22071e-07
2.22241e-07
2.2241e-07
2.2258e-07
2.2275e-07
2.2292e-07
2.2309e-07
2.23261e-07
2.23432e-07
2.23603e-07
2.23775e-07
2.23947e-07
2.24119e-07
2.24291e-07
2.24463e-07
2.24636e-07
2.24809e-07
2.24983e-07
2.25156e-07
2.2533e-07
2.25505e-07
2.25679e-07
2.25854e-07
2.26029e-07
2.26204e-07
2.2638e-07
2.26555e-07
2.26732e-07
2.26908e-07
2.27085e-07
2.27262e-07
2.27439e-07
2.27616e-07
2.27794e-07
2.27972e-07
2.2815e-07
2.28329e-07
2.28508e-07
2.28686e-07
2.28865e-07
2.29044e-07
2.29224e-07
2.29404e-07
2.29585e-07
2.29765e-07
2.29946e-07
2.30128e-07
2.30309e-07
2.30491e-07
2.30673e-07
2.30856e-07
2.31038e-07
2.31221e-07
2.31404e-07
2.31588e-07
2.31772e-07
2.31956e-07
2.3214e-07
2.32325e-07
2.32509e-07
2.32695e-07
2.3288e-07
2.33066e-07
2.33252e-07
2.33438e-07
2.33625e-07
2.33812e-07
2.33999e-07
2.34186e-07
2.34374e-07
2.34562e-07
2.34751e-07
2.34939e-07
2.35128e-07
2.35317e-07
2.35507e-07
2.35697e-07
2.35887e-07
2.36077e-07
2.36268e-07
2.36459e-07
2.36651e-07
2.36842e-07
2.37034e-07
2.37227e-07
2.37419e-07
2.37612e-07
2.37805e-07
2.37999e-07
2.38193e-07
2.38387e-07
2.38582e-07
2.38777e-07
2.38972e-07
2.39166e-07
2.39362e-07
2.39558e-07
2.39755e-07
2.39951e-07
2.40148e-07
2.40346e-07
2.40544e-07
2.40742e-07
2.4094e-07
2.41139e-07
2.41338e-07
2.41536e-07
2.41736e-07
2.41936e-07
2.42136e-07
2.42337e-07
2.42538e-07
2.4274e-07
2.42941e-07
2.43144e-07
2.43346e-07
2.43549e-07
2.43752e-07
2.43956e-07
2.4416e-07
2.44364e-07
2.44569e-07
2.44774e-07
2.44979e-07
2.45185e-07
2.45391e-07
2.45598e-07
2.45805e-07
2.46012e-07
2.4622e-07
2.46428e-07
2.46637e-07
2.46846e-07
2.47055e-07
2.47265e-07
2.47475e-07
2.47685e-07
2.47896e-07
2.48108e-07
2.48319e-07
2.48531e-07
2.48744e-07
2.48957e-07
2.49171e-07
2.49385e-07
2.49599e-07
2.49814e-07
2.50029e-07
2.50245e-07
2.50461e-07
2.50678e-07
2.50895e-07
2.51113e-07
2.51331e-07
2.5155e-07
2.51769e-07
2.51989e-07
2.5221e-07
2.52431e-07
2.52653e-07
2.52876e-07
2.53099e-07
2.53323e-07
2.53547e-07
2.53772e-07
2.53999e-07
2.54226e-07
2.54453e-07
2.54682e-07
2.54912e-07
2.55142e-07
2.55374e-07
2.55607e-07
2.55841e-07
2.56076e-07
2.56312e-07
2.5655e-07
2.56789e-07
2.5703e-07
2.57272e-07
2.57516e-07
2.57762e-07
2.58009e-07
2.58259e-07
2.58511e-07
2.58765e-07
2.59021e-07
2.59281e-07
2.59542e-07
2.59807e-07
2.60075e-07
2.60346e-07
2.60621e-07
2.60899e-07
2.61181e-07
2.61468e-07
2.61759e-07
2.62055e-07
2.62355e-07
2.62662e-07
2.62974e-07
2.63292e-07
2.63617e-07
2.63949e-07
2.64288e-07
2.64636e-07
2.64991e-07
2.65356e-07
2.6573e-07
2.66115e-07
2.6651e-07
2.66916e-07
2.67335e-07
2.67767e-07
2.68213e-07
2.68673e-07
2.69149e-07
2.69641e-07
2.70151e-07
2.70679e-07
2.71228e-07
2.71797e-07
2.72388e-07
2.73003e-07
2.73642e-07
2.74308e-07
2.75002e-07
2.75726e-07
2.76481e-07
2.77269e-07
2.78092e-07
2.78952e-07
2.79851e-07
2.80792e-07
2.81776e-07
2.82807e-07
2.83886e-07
2.85016e-07
2.862e-07
2.87442e-07
2.88744e-07
2.90109e-07
2.91541e-07
2.93043e-07
2.94619e-07
2.96272e-07
2.98008e-07
2.99829e-07
3.01741e-07
3.03747e-07
3.05853e-07
3.08063e-07
3.10383e-07
3.12817e-07
3.15371e-07
3.18052e-07
3.20864e-07
3.23814e-07
3.26907e-07
3.30152e-07
3.33554e-07
3.3712e-07
3.40857e-07
3.44774e-07
3.48876e-07
3.53173e-07
3.57671e-07
3.6238e-07
3.67307e-07
3.72461e-07
3.77851e-07
3.83485e-07
3.89373e-07
3.95523e-07
4.01945e-07
4.08648e-07
4.15641e-07
4.22934e-07
4.30535e-07
4.38456e-07
4.46703e-07
4.55288e-07
4.64218e-07
4.73502e-07
4.83149e-07
4.93167e-07
5.03564e-07
5.14347e-07
5.25522e-07
5.37096e-07
5.49074e-07
5.61461e-07
5.74259e-07
5.87472e-07
6.011e-07
6.15144e-07
6.29602e-07
6.44471e-07
6.59747e-07
6.75422e-07
6.91489e-07
7.07936e-07
7.24749e-07
7.41914e-07
7.59412e-07
7.77222e-07
7.95319e-07
8.13676e-07
8.32262e-07
8.51044e-07
8.69983e-07
8.89039e-07
9.08167e-07
9.27317e-07
9.46439e-07
9.65475e-07
9.84365e-07
1.00305e-06
1.02145e-06
1.03951e-06
1.05715e-06
1.07429e-06
1.09086e-06
1.10677e-06
1.12194e-06
1.13628e-06
1.1497e-06
1.16213e-06
1.17347e-06
1.18363e-06
1.19253e-06
1.20008e-06
1.2062e-06
1.2108e-06
1.21381e-06
1.21512e-06
1.21472e-06
1.2125e-06
1.2084e-06
1.20237e-06
1.19435e-06
1.18428e-06
1.17213e-06
1.15785e-06
1.14141e-06
1.12279e-06
1.10197e-06
1.07893e-06
1.05367e-06
1.02619e-06
9.96506e-07
9.64631e-07
9.30596e-07
8.94441e-07
8.56215e-07
8.15981e-07
7.73814e-07
7.29802e-07
6.84052e-07
6.36685e-07
5.87845e-07
5.37695e-07
4.86426e-07
4.34253e-07
3.81423e-07
3.2822e-07
2.74961e-07
2.2201e-07
1.69773e-07
1.18707e-07
6.93171e-08
2.21595e-08
)
;

boundaryField
{
    fixedWall
    {
        type            zeroGradient;
    }
    outlet
    {
        type            inletOutlet;
        inletValue      uniform 0;
        value           uniform 0;
    }
    defaultFaces
    {
        type            empty;
    }
}


// ************************************************************************* //
