/*--------------------------------*- C++ -*----------------------------------*\
| =========                 |                                                 |
| \\      /  F ield         | OpenFOAM: The Open Source CFD Toolbox           |
|  \\    /   O peration     | Version:  2406                                  |
|   \\  /    A nd           | Website:  www.openfoam.com                      |
|    \\/     M anipulation  |                                                 |
\*---------------------------------------------------------------------------*/
FoamFile
{
    version     2.0;
    format      ascii;
    arch        "LSB;label=32;scalar=64";
    class       surfaceScalarField;
    location    "12";
    object      phi;
}
// * * * * * * * * * * * * * * * * * * * * * * * * * * * * * * * * * * * * * //

dimensions      [1 0 -1 0 0 0 0];

oriented        oriented;

internalField   nonuniform List<scalar> 
999
(
-1.39637e-08
-4.70774e-08
-9.25748e-08
-1.46267e-07
-2.05428e-07
-2.68233e-07
-3.33435e-07
-4.00143e-07
-4.67732e-07
-5.35731e-07
-6.03813e-07
-6.71722e-07
-7.39274e-07
-8.06331e-07
-8.72788e-07
-9.38573e-07
-1.00362e-06
-1.06789e-06
-1.13136e-06
-1.194e-06
-1.25581e-06
-1.31676e-06
-1.37687e-06
-1.43612e-06
-1.49452e-06
-1.55208e-06
-1.60879e-06
-1.66467e-06
-1.71973e-06
-1.77397e-06
-1.82739e-06
-1.88002e-06
-1.93186e-06
-1.98292e-06
-2.0332e-06
-2.08273e-06
-2.1315e-06
-2.17952e-06
-2.22682e-06
-2.27338e-06
-2.31924e-06
-2.36438e-06
-2.40883e-06
-2.45259e-06
-2.49566e-06
-2.53806e-06
-2.5798e-06
-2.62088e-06
-2.66131e-06
-2.7011e-06
-2.74026e-06
-2.77878e-06
-2.81669e-06
-2.85399e-06
-2.89068e-06
-2.92677e-06
-2.96228e-06
-2.99719e-06
-3.03153e-06
-3.06529e-06
-3.09849e-06
-3.13113e-06
-3.16322e-06
-3.19476e-06
-3.22576e-06
-3.25622e-06
-3.28616e-06
-3.31558e-06
-3.34447e-06
-3.37286e-06
-3.40074e-06
-3.42812e-06
-3.45501e-06
-3.4814e-06
-3.50732e-06
-3.53276e-06
-3.55772e-06
-3.58222e-06
-3.60626e-06
-3.62984e-06
-3.65298e-06
-3.67566e-06
-3.69792e-06
-3.71973e-06
-3.74112e-06
-3.76208e-06
-3.78263e-06
-3.80276e-06
-3.82249e-06
-3.84181e-06
-3.86074e-06
-3.87927e-06
-3.89742e-06
-3.91519e-06
-3.93258e-06
-3.9496e-06
-3.96625e-06
-3.98254e-06
-3.99848e-06
-4.01407e-06
-4.02931e-06
-4.04421e-06
-4.05877e-06
-4.07301e-06
-4.08691e-06
-4.1005e-06
-4.11378e-06
-4.12674e-06
-4.1394e-06
-4.15175e-06
-4.16381e-06
-4.17558e-06
-4.18707e-06
-4.19827e-06
-4.2092e-06
-4.21985e-06
-4.23024e-06
-4.24036e-06
-4.25023e-06
-4.25984e-06
-4.26921e-06
-4.27833e-06
-4.28722e-06
-4.29587e-06
-4.30429e-06
-4.31248e-06
-4.32045e-06
-4.32821e-06
-4.33575e-06
-4.34308e-06
-4.35022e-06
-4.35715e-06
-4.36388e-06
-4.37043e-06
-4.37679e-06
-4.38296e-06
-4.38896e-06
-4.39478e-06
-4.40043e-06
-4.40591e-06
-4.41123e-06
-4.41639e-06
-4.42139e-06
-4.42624e-06
-4.43094e-06
-4.4355e-06
-4.43991e-06
-4.44419e-06
-4.44833e-06
-4.45234e-06
-4.45622e-06
-4.45998e-06
-4.46362e-06
-4.46713e-06
-4.47054e-06
-4.47383e-06
-4.47701e-06
-4.48008e-06
-4.48306e-06
-4.48593e-06
-4.48871e-06
-4.49137e-06
-4.49395e-06
-4.49643e-06
-4.49883e-06
-4.50113e-06
-4.50338e-06
-4.50555e-06
-4.50765e-06
-4.50967e-06
-4.5116e-06
-4.51346e-06
-4.51526e-06
-4.51701e-06
-4.51868e-06
-4.52029e-06
-4.52182e-06
-4.5233e-06
-4.52472e-06
-4.5261e-06
-4.52743e-06
-4.5287e-06
-4.52992e-06
-4.5311e-06
-4.53223e-06
-4.53332e-06
-4.53436e-06
-4.53536e-06
-4.53632e-06
-4.53725e-06
-4.53813e-06
-4.53898e-06
-4.53979e-06
-4.54057e-06
-4.54132e-06
-4.54203e-06
-4.54272e-06
-4.54338e-06
-4.54401e-06
-4.54461e-06
-4.54519e-06
-4.54574e-06
-4.54627e-06
-4.54677e-06
-4.54726e-06
-4.54772e-06
-4.54816e-06
-4.54858e-06
-4.54898e-06
-4.54937e-06
-4.54974e-06
-4.55009e-06
-4.55042e-06
-4.55074e-06
-4.55105e-06
-4.55134e-06
-4.55162e-06
-4.55188e-06
-4.55213e-06
-4.55237e-06
-4.5526e-06
-4.55282e-06
-4.55303e-06
-4.55322e-06
-4.55341e-06
-4.55359e-06
-4.55376e-06
-4.55392e-06
-4.55407e-06
-4.55422e-06
-4.55436e-06
-4.55449e-06
-4.55461e-06
-4.55473e-06
-4.55484e-06
-4.55495e-06
-4.55505e-06
-4.55514e-06
-4.55523e-06
-4.55532e-06
-4.5554e-06
-4.55547e-06
-4.55554e-06
-4.55561e-06
-4.55568e-06
-4.55574e-06
-4.55579e-06
-4.55585e-06
-4.5559e-06
-4.55594e-06
-4.55599e-06
-4.55603e-06
-4.55607e-06
-4.55611e-06
-4.55614e-06
-4.55617e-06
-4.5562e-06
-4.55623e-06
-4.55626e-06
-4.55628e-06
-4.55631e-06
-4.55633e-06
-4.55635e-06
-4.55637e-06
-4.55638e-06
-4.5564e-06
-4.55641e-06
-4.55643e-06
-4.55644e-06
-4.55645e-06
-4.55646e-06
-4.55647e-06
-4.55648e-06
-4.55648e-06
-4.55649e-06
-4.55649e-06
-4.5565e-06
-4.5565e-06
-4.55651e-06
-4.55651e-06
-4.55651e-06
-4.55651e-06
-4.55651e-06
-4.55652e-06
-4.55652e-06
-4.55651e-06
-4.55651e-06
-4.55651e-06
-4.55651e-06
-4.55651e-06
-4.55651e-06
-4.55651e-06
-4.55651e-06
-4.5565e-06
-4.5565e-06
-4.5565e-06
-4.55649e-06
-4.55649e-06
-4.55649e-06
-4.55648e-06
-4.55648e-06
-4.55648e-06
-4.55647e-06
-4.55647e-06
-4.55647e-06
-4.55646e-06
-4.55646e-06
-4.55646e-06
-4.55645e-06
-4.55645e-06
-4.55644e-06
-4.55644e-06
-4.55643e-06
-4.55643e-06
-4.55643e-06
-4.55642e-06
-4.55642e-06
-4.55641e-06
-4.55641e-06
-4.55641e-06
-4.5564e-06
-4.5564e-06
-4.55639e-06
-4.55639e-06
-4.55639e-06
-4.55638e-06
-4.55638e-06
-4.55638e-06
-4.55637e-06
-4.55637e-06
-4.55636e-06
-4.55636e-06
-4.55636e-06
-4.55635e-06
-4.55635e-06
-4.55635e-06
-4.55635e-06
-4.55634e-06
-4.55634e-06
-4.55634e-06
-4.55633e-06
-4.55633e-06
-4.55633e-06
-4.55633e-06
-4.55632e-06
-4.55632e-06
-4.55632e-06
-4.55632e-06
-4.55632e-06
-4.55632e-06
-4.55631e-06
-4.55631e-06
-4.55631e-06
-4.55631e-06
-4.55631e-06
-4.55631e-06
-4.55631e-06
-4.55631e-06
-4.55631e-06
-4.5563e-06
-4.5563e-06
-4.5563e-06
-4.5563e-06
-4.5563e-06
-4.5563e-06
-4.5563e-06
-4.5563e-06
-4.5563e-06
-4.5563e-06
-4.5563e-06
-4.5563e-06
-4.5563e-06
-4.5563e-06
-4.5563e-06
-4.5563e-06
-4.5563e-06
-4.5563e-06
-4.5563e-06
-4.5563e-06
-4.5563e-06
-4.5563e-06
-4.5563e-06
-4.5563e-06
-4.5563e-06
-4.5563e-06
-4.5563e-06
-4.5563e-06
-4.5563e-06
-4.5563e-06
-4.55631e-06
-4.55631e-06
-4.55631e-06
-4.55631e-06
-4.55631e-06
-4.55631e-06
-4.55631e-06
-4.55631e-06
-4.55631e-06
-4.55631e-06
-4.55631e-06
-4.55631e-06
-4.55631e-06
-4.55631e-06
-4.55631e-06
-4.55631e-06
-4.55632e-06
-4.55632e-06
-4.55632e-06
-4.55632e-06
-4.55632e-06
-4.55632e-06
-4.55632e-06
-4.55632e-06
-4.55632e-06
-4.55632e-06
-4.55632e-06
-4.55632e-06
-4.55632e-06
-4.55632e-06
-4.55632e-06
-4.55632e-06
-4.55633e-06
-4.55633e-06
-4.55633e-06
-4.55633e-06
-4.55633e-06
-4.55633e-06
-4.55633e-06
-4.55633e-06
-4.55633e-06
-4.55633e-06
-4.55633e-06
-4.55633e-06
-4.55633e-06
-4.55633e-06
-4.55633e-06
-4.55633e-06
-4.55633e-06
-4.55633e-06
-4.55633e-06
-4.55633e-06
-4.55633e-06
-4.55633e-06
-4.55633e-06
-4.55633e-06
-4.55633e-06
-4.55633e-06
-4.55633e-06
-4.55633e-06
-4.55633e-06
-4.55633e-06
-4.55633e-06
-4.55633e-06
-4.55633e-06
-4.55633e-06
-4.55633e-06
-4.55633e-06
-4.55633e-06
-4.55633e-06
-4.55633e-06
-4.55633e-06
-4.55633e-06
-4.55633e-06
-4.55633e-06
-4.55633e-06
-4.55633e-06
-4.55633e-06
-4.55633e-06
-4.55633e-06
-4.55633e-06
-4.55633e-06
-4.55633e-06
-4.55633e-06
-4.55633e-06
-4.55633e-06
-4.55633e-06
-4.55633e-06
-4.55633e-06
-4.55633e-06
-4.55633e-06
-4.55633e-06
-4.55633e-06
-4.55633e-06
-4.55633e-06
-4.55633e-06
-4.55633e-06
-4.55633e-06
-4.55633e-06
-4.55633e-06
-4.55633e-06
-4.55632e-06
-4.55633e-06
-4.55632e-06
-4.55632e-06
-4.55632e-06
-4.55632e-06
-4.55632e-06
-4.55632e-06
-4.55632e-06
-4.55632e-06
-4.55632e-06
-4.55632e-06
-4.55632e-06
-4.55632e-06
-4.55632e-06
-4.55632e-06
-4.55632e-06
-4.55632e-06
-4.55632e-06
-4.55632e-06
-4.55632e-06
-4.55632e-06
-4.55632e-06
-4.55632e-06
-4.55631e-06
-4.55632e-06
-4.55631e-06
-4.55632e-06
-4.55631e-06
-4.55631e-06
-4.55631e-06
-4.55631e-06
-4.55631e-06
-4.55631e-06
-4.55631e-06
-4.55631e-06
-4.55631e-06
-4.55631e-06
-4.55631e-06
-4.55631e-06
-4.55631e-06
-4.55631e-06
-4.55631e-06
-4.55631e-06
-4.5563e-06
-4.5563e-06
-4.5563e-06
-4.5563e-06
-4.5563e-06
-4.5563e-06
-4.5563e-06
-4.5563e-06
-4.5563e-06
-4.5563e-06
-4.5563e-06
-4.5563e-06
-4.5563e-06
-4.5563e-06
-4.55629e-06
-4.55629e-06
-4.55629e-06
-4.55629e-06
-4.55629e-06
-4.55629e-06
-4.55629e-06
-4.55629e-06
-4.55628e-06
-4.55628e-06
-4.55628e-06
-4.55628e-06
-4.55628e-06
-4.55628e-06
-4.55628e-06
-4.55628e-06
-4.55628e-06
-4.55628e-06
-4.55628e-06
-4.55628e-06
-4.55628e-06
-4.55628e-06
-4.55628e-06
-4.55627e-06
-4.55627e-06
-4.55627e-06
-4.55627e-06
-4.55627e-06
-4.55627e-06
-4.55627e-06
-4.55627e-06
-4.55627e-06
-4.55627e-06
-4.55627e-06
-4.55627e-06
-4.55627e-06
-4.55627e-06
-4.55627e-06
-4.55627e-06
-4.55627e-06
-4.55627e-06
-4.55627e-06
-4.55627e-06
-4.55627e-06
-4.55627e-06
-4.55627e-06
-4.55627e-06
-4.55627e-06
-4.55627e-06
-4.55627e-06
-4.55627e-06
-4.55627e-06
-4.55627e-06
-4.55627e-06
-4.55627e-06
-4.55627e-06
-4.55627e-06
-4.55627e-06
-4.55627e-06
-4.55627e-06
-4.55627e-06
-4.55627e-06
-4.55627e-06
-4.55627e-06
-4.55627e-06
-4.55627e-06
-4.55627e-06
-4.55627e-06
-4.55627e-06
-4.55627e-06
-4.55627e-06
-4.55627e-06
-4.55627e-06
-4.55627e-06
-4.55627e-06
-4.55627e-06
-4.55627e-06
-4.55627e-06
-4.55627e-06
-4.55627e-06
-4.55627e-06
-4.55627e-06
-4.55627e-06
-4.55627e-06
-4.55627e-06
-4.55627e-06
-4.55627e-06
-4.55627e-06
-4.55627e-06
-4.55627e-06
-4.55627e-06
-4.55627e-06
-4.55627e-06
-4.55627e-06
-4.55627e-06
-4.55627e-06
-4.55627e-06
-4.55627e-06
-4.55627e-06
-4.55627e-06
-4.55627e-06
-4.55627e-06
-4.55627e-06
-4.55627e-06
-4.55627e-06
-4.55627e-06
-4.55627e-06
-4.55627e-06
-4.55626e-06
-4.55626e-06
-4.55626e-06
-4.55626e-06
-4.55626e-06
-4.55626e-06
-4.55626e-06
-4.55626e-06
-4.55626e-06
-4.55626e-06
-4.55626e-06
-4.55625e-06
-4.55625e-06
-4.55625e-06
-4.55625e-06
-4.55625e-06
-4.55625e-06
-4.55625e-06
-4.55624e-06
-4.55624e-06
-4.55624e-06
-4.55624e-06
-4.55624e-06
-4.55624e-06
-4.55623e-06
-4.55623e-06
-4.55623e-06
-4.55623e-06
-4.55623e-06
-4.55623e-06
-4.55622e-06
-4.55622e-06
-4.55622e-06
-4.55622e-06
-4.55622e-06
-4.55622e-06
-4.55621e-06
-4.55621e-06
-4.55621e-06
-4.55621e-06
-4.55621e-06
-4.55621e-06
-4.5562e-06
-4.5562e-06
-4.5562e-06
-4.5562e-06
-4.5562e-06
-4.5562e-06
-4.5562e-06
-4.5562e-06
-4.5562e-06
-4.55619e-06
-4.55619e-06
-4.55619e-06
-4.55619e-06
-4.55619e-06
-4.55619e-06
-4.55619e-06
-4.55619e-06
-4.55619e-06
-4.55619e-06
-4.55619e-06
-4.55619e-06
-4.55619e-06
-4.55619e-06
-4.55619e-06
-4.55619e-06
-4.55619e-06
-4.55619e-06
-4.5562e-06
-4.5562e-06
-4.5562e-06
-4.5562e-06
-4.5562e-06
-4.5562e-06
-4.5562e-06
-4.55621e-06
-4.55621e-06
-4.55621e-06
-4.55622e-06
-4.55622e-06
-4.55622e-06
-4.55623e-06
-4.55623e-06
-4.55623e-06
-4.55624e-06
-4.55624e-06
-4.55625e-06
-4.55625e-06
-4.55626e-06
-4.55627e-06
-4.55627e-06
-4.55628e-06
-4.55629e-06
-4.5563e-06
-4.55631e-06
-4.55632e-06
-4.55633e-06
-4.55634e-06
-4.55635e-06
-4.55636e-06
-4.55638e-06
-4.55639e-06
-4.55641e-06
-4.55643e-06
-4.55645e-06
-4.55647e-06
-4.55649e-06
-4.55651e-06
-4.55654e-06
-4.55656e-06
-4.55659e-06
-4.55662e-06
-4.55666e-06
-4.55669e-06
-4.55673e-06
-4.55677e-06
-4.55682e-06
-4.55687e-06
-4.55692e-06
-4.55697e-06
-4.55703e-06
-4.5571e-06
-4.55717e-06
-4.55724e-06
-4.55732e-06
-4.55741e-06
-4.5575e-06
-4.5576e-06
-4.55771e-06
-4.55782e-06
-4.55794e-06
-4.55808e-06
-4.55822e-06
-4.55837e-06
-4.55854e-06
-4.55871e-06
-4.5589e-06
-4.5591e-06
-4.55932e-06
-4.55955e-06
-4.5598e-06
-4.56007e-06
-4.56036e-06
-4.56066e-06
-4.56099e-06
-4.56134e-06
-4.56171e-06
-4.56211e-06
-4.56254e-06
-4.563e-06
-4.56348e-06
-4.564e-06
-4.56455e-06
-4.56514e-06
-4.56577e-06
-4.56644e-06
-4.56716e-06
-4.56792e-06
-4.56873e-06
-4.56959e-06
-4.57051e-06
-4.57148e-06
-4.57252e-06
-4.57362e-06
-4.57479e-06
-4.57603e-06
-4.57734e-06
-4.57874e-06
-4.58022e-06
-4.58179e-06
-4.58345e-06
-4.58521e-06
-4.58707e-06
-4.58904e-06
-4.59113e-06
-4.59334e-06
-4.59567e-06
-4.59814e-06
-4.60074e-06
-4.60349e-06
-4.60639e-06
-4.60945e-06
-4.61268e-06
-4.61608e-06
-4.61967e-06
-4.62344e-06
-4.62742e-06
-4.63161e-06
-4.63601e-06
-4.64064e-06
-4.64551e-06
-4.65063e-06
-4.65601e-06
-4.66165e-06
-4.66758e-06
-4.6738e-06
-4.68032e-06
-4.68716e-06
-4.69433e-06
-4.70183e-06
-4.7097e-06
-4.71793e-06
-4.72654e-06
-4.73555e-06
-4.74497e-06
-4.75482e-06
-4.76511e-06
-4.77585e-06
-4.78707e-06
-4.79878e-06
-4.811e-06
-4.82374e-06
-4.83702e-06
-4.85086e-06
-4.86527e-06
-4.88028e-06
-4.89591e-06
-4.91217e-06
-4.92908e-06
-4.94667e-06
-4.96495e-06
-4.98394e-06
-5.00367e-06
-5.02415e-06
-5.04541e-06
-5.06747e-06
-5.09035e-06
-5.11407e-06
-5.13866e-06
-5.16414e-06
-5.19053e-06
-5.21786e-06
-5.24614e-06
-5.27541e-06
-5.30568e-06
-5.33699e-06
-5.36935e-06
-5.40279e-06
-5.43734e-06
-5.47302e-06
-5.50985e-06
-5.54788e-06
-5.58711e-06
-5.62757e-06
-5.6693e-06
-5.71231e-06
-5.75665e-06
-5.80232e-06
-5.84936e-06
-5.8978e-06
-5.94766e-06
-5.99898e-06
-6.05177e-06
-6.10607e-06
-6.16191e-06
-6.21932e-06
-6.27832e-06
-6.33894e-06
-6.40122e-06
-6.46518e-06
-6.53085e-06
-6.59827e-06
-6.66746e-06
-6.73844e-06
-6.81127e-06
-6.88596e-06
-6.96255e-06
-7.04107e-06
-7.12155e-06
-7.20402e-06
-7.28852e-06
-7.37509e-06
-7.46375e-06
-7.55454e-06
-7.64749e-06
-7.74265e-06
-7.84005e-06
-7.93972e-06
-8.04171e-06
-8.14606e-06
-8.25279e-06
-8.36196e-06
-8.47361e-06
-8.58778e-06
-8.70451e-06
-8.82385e-06
-8.94585e-06
-9.07056e-06
-9.19802e-06
-9.32829e-06
-9.46142e-06
-9.59747e-06
-9.73649e-06
-9.87855e-06
-1.00237e-05
-1.0172e-05
-1.03236e-05
-1.04784e-05
-1.06366e-05
-1.07982e-05
-1.09632e-05
-1.11318e-05
-1.13038e-05
-1.14793e-05
-1.16581e-05
-1.18396e-05
-1.20216e-05
-1.22178e-05
-1.24168e-05
-1.26192e-05
-1.28254e-05
-1.30357e-05
-1.32506e-05
-1.34701e-05
-1.36944e-05
-1.39237e-05
-1.41581e-05
-1.43977e-05
-1.46425e-05
-1.48927e-05
-1.51483e-05
-1.54093e-05
-1.56755e-05
-1.5947e-05
-1.62236e-05
-1.65051e-05
-1.6791e-05
-1.7081e-05
-1.73744e-05
-1.76704e-05
-1.7968e-05
-1.82659e-05
-1.85623e-05
-1.88551e-05
-1.91417e-05
-1.94188e-05
-1.96824e-05
-1.99276e-05
-2.01483e-05
-2.03372e-05
-2.04859e-05
-2.05839e-05
)
;

boundaryField
{
    fixedWall
    {
        type            calculated;
        value           uniform 0;
    }
    outlet
    {
        type            calculated;
        value           uniform -2.06196e-05;
    }
    defaultFaces
    {
        type            empty;
    }
}


// ************************************************************************* //
