/*--------------------------------*- C++ -*----------------------------------*\
| =========                 |                                                 |
| \\      /  F ield         | OpenFOAM: The Open Source CFD Toolbox           |
|  \\    /   O peration     | Version:  2406                                  |
|   \\  /    A nd           | Website:  www.openfoam.com                      |
|    \\/     M anipulation  |                                                 |
\*---------------------------------------------------------------------------*/
FoamFile
{
    version     2.0;
    format      ascii;
    arch        "LSB;label=32;scalar=64";
    class       volScalarField;
    location    "12";
    object      Qdot;
}
// * * * * * * * * * * * * * * * * * * * * * * * * * * * * * * * * * * * * * //

dimensions      [1 -1 -3 0 0 0 0];

internalField   nonuniform List<scalar> 
1000
(
-8.94336e-19
-1.84457e-17
-2.19503e-16
-1.72456e-15
3.80442e-09
2.6631e-08
7.33446e-08
2.44751e-07
6.63312e-07
1.63501e-06
3.67566e-06
7.62406e-06
1.47801e-05
2.70173e-05
4.68978e-05
7.77924e-05
0.000123925
0.000190458
0.000283434
0.000409765
0.000577092
0.000793672
0.00106817
0.00140947
0.00182641
0.00232756
0.00292096
0.00361388
0.00441263
0.00532234
0.00634677
0.00748827
0.00874758
0.0101239
0.0116148
0.0132162
0.0149227
0.0167273
0.0186217
0.0205968
0.0226421
0.0247465
0.0268985
0.0290858
0.0312962
0.0335173
0.0357369
0.0379431
0.0401245
0.0422701
0.0443696
0.0464137
0.0483937
0.0503019
0.0521316
0.0538767
0.0555326
0.0570953
0.0585617
0.0599297
0.0611981
0.0623662
0.0634345
0.0644038
0.0652757
0.0660522
0.0667359
0.0673299
0.0678373
0.068262
0.0686077
0.0688786
0.0690788
0.0692126
0.0692843
0.0692982
0.0692588
0.0691701
0.0690363
0.0688615
0.0686497
0.0684045
0.0681296
0.0678284
0.0675044
0.0671605
0.0667996
0.0664247
0.0660381
0.0656424
0.0652397
0.0648322
0.0644217
0.0640099
0.0635985
0.0631888
0.0627823
0.06238
0.061983
0.0615924
0.0612088
0.060833
0.0604657
0.0601074
0.0597585
0.0594195
0.0590907
0.0587723
0.0584645
0.0581674
0.0578812
0.0576058
0.0573414
0.0570878
0.056845
0.056613
0.0563915
0.0561804
0.0559797
0.0557891
0.0556084
0.0554374
0.0552759
0.0551236
0.0549805
0.0548461
0.0547203
0.0546027
0.0544933
0.0543916
0.0542976
0.0542108
0.0541311
0.0540582
0.0539919
0.053932
0.0538781
0.0538301
0.0537878
0.0537509
0.0537191
0.0536924
0.0536705
0.0536531
0.0536402
0.0536314
0.0536267
0.0536257
0.0536285
0.0536347
0.0536443
0.0536571
0.0536729
0.0536915
0.053713
0.053737
0.0537635
0.0537924
0.0538235
0.0538567
0.053892
0.0539291
0.0539681
0.0540088
0.0540511
0.054095
0.0541403
0.054187
0.054235
0.0542843
0.0543345
0.0543861
0.0544387
0.054492
0.0545463
0.0546015
0.0546575
0.0547145
0.0547722
0.0548306
0.0548897
0.0549493
0.0550095
0.0550703
0.0551316
0.0551933
0.0552555
0.0553182
0.0553812
0.0554447
0.0555085
0.0555723
0.0556368
0.0557016
0.0557666
0.0558319
0.0558974
0.0559632
0.0560292
0.0560954
0.0561618
0.0562284
0.0562951
0.0563621
0.0564292
0.0564965
0.056564
0.0566316
0.0566994
0.0567673
0.0568353
0.0569035
0.0569718
0.0570402
0.0571087
0.0571774
0.0572462
0.0573148
0.0573838
0.0574529
0.0575221
0.0575914
0.0576605
0.05773
0.0577996
0.0578692
0.057939
0.0580089
0.0580786
0.0581486
0.0582188
0.058289
0.0583593
0.0584297
0.0585001
0.0585707
0.0586413
0.0587121
0.0587829
0.0588538
0.0589249
0.058996
0.0590672
0.0591385
0.0592099
0.0592814
0.059353
0.0594247
0.0594965
0.0595684
0.0596404
0.0597125
0.0597847
0.059857
0.0599294
0.0600019
0.0600745
0.0601472
0.06022
0.0602929
0.0603658
0.0604389
0.0605122
0.0605855
0.0606589
0.0607325
0.0608062
0.0608799
0.0609538
0.0610278
0.0611019
0.0611761
0.0612504
0.0613249
0.0613993
0.0614736
0.0615484
0.0616233
0.0616984
0.0617735
0.0618488
0.0619242
0.0619997
0.0620753
0.062151
0.0622269
0.0623028
0.0623789
0.0624551
0.0625315
0.0626079
0.0626845
0.0627612
0.062838
0.0629149
0.0629918
0.0630686
0.0631459
0.0632233
0.0633008
0.0633785
0.0634563
0.0635343
0.0636123
0.0636905
0.0637688
0.0638473
0.0639258
0.0640046
0.0640834
0.0641624
0.0642415
0.0643208
0.0644002
0.0644797
0.0645594
0.0646392
0.0647191
0.0647992
0.0648794
0.0649598
0.0650403
0.0651209
0.0652017
0.0652826
0.0653637
0.0654449
0.0655262
0.0656076
0.0656893
0.065771
0.065853
0.065935
0.0660173
0.0660997
0.0661822
0.0662649
0.0663477
0.0664307
0.0665139
0.0665972
0.0666806
0.0667643
0.0668477
0.0669316
0.0670157
0.0670999
0.0671843
0.0672688
0.0673535
0.0674384
0.0675234
0.0676085
0.0676938
0.0677793
0.0678649
0.0679507
0.0680367
0.0681228
0.0682091
0.0682955
0.0683821
0.0684689
0.0685559
0.068643
0.0687303
0.0688177
0.0689053
0.0689931
0.069081
0.0691692
0.0692574
0.0693459
0.0694345
0.0695233
0.0696123
0.0697015
0.0697908
0.0698803
0.06997
0.0700598
0.0701498
0.07024
0.0703304
0.0704209
0.0705117
0.0706026
0.0706937
0.0707849
0.0708763
0.070968
0.0710597
0.0711517
0.0712439
0.0713362
0.0714287
0.0715214
0.0716143
0.0717074
0.0718006
0.071894
0.0719877
0.0720815
0.0721754
0.0722696
0.072364
0.0724585
0.0725532
0.0726482
0.0727433
0.0728385
0.072934
0.0730297
0.0731255
0.0732216
0.0733178
0.0734142
0.0735109
0.0736077
0.0737046
0.0738018
0.0738992
0.0739968
0.0740945
0.0741925
0.0742906
0.074389
0.0744875
0.0745862
0.0746852
0.0747843
0.0748836
0.0749831
0.0750828
0.0751827
0.0752828
0.0753831
0.0754836
0.0755843
0.0756852
0.0757863
0.0758877
0.0759892
0.0760909
0.0761928
0.0762949
0.0763972
0.0764998
0.0766025
0.0767055
0.0768086
0.076912
0.0770155
0.0771193
0.0772233
0.0773275
0.0774319
0.0775366
0.0776411
0.0777461
0.0778514
0.0779569
0.0780626
0.0781685
0.0782746
0.0783809
0.0784874
0.0785942
0.0787011
0.0788083
0.0789157
0.0790233
0.0791312
0.0792392
0.0793475
0.079456
0.0795647
0.0796737
0.0797828
0.0798922
0.0800018
0.0801117
0.0802218
0.0803321
0.0804426
0.0805534
0.0806643
0.0807756
0.080887
0.0809987
0.0811107
0.0812226
0.081335
0.0814476
0.0815605
0.0816736
0.0817869
0.0819004
0.0820142
0.0821283
0.0822425
0.082357
0.0824718
0.0825868
0.082702
0.0828175
0.0829332
0.0830491
0.0831653
0.0832817
0.0833984
0.0835154
0.0836325
0.08375
0.0838676
0.0839856
0.0841037
0.0842222
0.0843409
0.0844598
0.084579
0.0846984
0.0848179
0.0849379
0.0850581
0.0851785
0.0852992
0.0854202
0.0855414
0.0856629
0.0857846
0.0859066
0.0860288
0.0861513
0.0862741
0.0863971
0.0865204
0.086644
0.0867678
0.0868919
0.0870162
0.0871408
0.0872657
0.0873908
0.0875163
0.0876419
0.0877679
0.0878941
0.0880206
0.0881474
0.0882744
0.0884017
0.0885293
0.0886571
0.0887853
0.0889137
0.0890423
0.0891713
0.0893005
0.0894301
0.0895599
0.0896899
0.0898203
0.0899509
0.0900819
0.0902131
0.0903446
0.0904763
0.0906084
0.0907408
0.0908734
0.0910063
0.0911396
0.0912731
0.0914069
0.091541
0.0916754
0.09181
0.091945
0.0920803
0.0922159
0.0923518
0.0924879
0.0926244
0.0927612
0.0928983
0.0930357
0.0931733
0.0933113
0.0934496
0.0935882
0.0937272
0.0938664
0.0940059
0.0941458
0.0942859
0.0944264
0.0945672
0.0947083
0.0948498
0.0949915
0.0951336
0.0952759
0.0954187
0.0955617
0.095705
0.0958487
0.0959927
0.096137
0.0962817
0.0964267
0.096572
0.0967176
0.0968636
0.0970099
0.0971566
0.0973035
0.0974509
0.0975985
0.0977465
0.0978949
0.0980436
0.0981926
0.0983413
0.0984904
0.0986405
0.098791
0.0989418
0.0990929
0.0992444
0.0993962
0.0995483
0.0997009
0.0998537
0.100007
0.100161
0.100314
0.100469
0.100623
0.100778
0.100934
0.10109
0.101246
0.101402
0.101559
0.101716
0.101874
0.102032
0.10219
0.102349
0.102508
0.102667
0.102827
0.102987
0.103148
0.103308
0.10347
0.103631
0.103793
0.103956
0.104119
0.104282
0.104445
0.104609
0.104774
0.104938
0.105103
0.105268
0.105434
0.1056
0.105766
0.105933
0.106101
0.106268
0.106437
0.106605
0.106774
0.106943
0.107113
0.107283
0.107454
0.107625
0.107796
0.107968
0.10814
0.108313
0.108486
0.108659
0.108833
0.109007
0.109181
0.109356
0.109532
0.109708
0.109884
0.110061
0.110238
0.110415
0.110593
0.110771
0.11095
0.111129
0.111309
0.111489
0.11167
0.111851
0.112032
0.112214
0.112396
0.112579
0.112762
0.112945
0.113129
0.113314
0.113499
0.113684
0.11387
0.114056
0.114243
0.11443
0.114618
0.114806
0.114995
0.115183
0.115372
0.115562
0.115753
0.115944
0.116135
0.116327
0.116519
0.116712
0.116906
0.1171
0.117293
0.117487
0.117682
0.117878
0.118074
0.118271
0.118468
0.118666
0.118864
0.119062
0.119262
0.119461
0.119661
0.119862
0.120063
0.120265
0.120467
0.12067
0.120873
0.121077
0.121282
0.121486
0.121692
0.121898
0.122104
0.122311
0.122519
0.122727
0.122935
0.123144
0.123354
0.123564
0.123775
0.123986
0.124197
0.12441
0.124622
0.124836
0.12505
0.125264
0.125479
0.125694
0.12591
0.126127
0.126344
0.126562
0.12678
0.126998
0.127218
0.127437
0.127658
0.127878
0.1281
0.128322
0.128544
0.128767
0.128991
0.129215
0.129439
0.129664
0.12989
0.130116
0.130343
0.13057
0.130798
0.131027
0.131256
0.131486
0.131716
0.131947
0.132178
0.132411
0.132643
0.132877
0.133111
0.133346
0.133581
0.133818
0.134055
0.134293
0.134532
0.134771
0.135012
0.135253
0.135496
0.13574
0.135985
0.136231
0.136478
0.136727
0.136978
0.13723
0.137483
0.137739
0.137996
0.138256
0.138517
0.138782
0.139049
0.139318
0.139591
0.139867
0.140146
0.14043
0.140717
0.141009
0.141305
0.141607
0.141914
0.142227
0.142546
0.142872
0.143206
0.143547
0.143897
0.144256
0.144625
0.145005
0.145396
0.145798
0.146214
0.146644
0.147089
0.147549
0.148026
0.148522
0.149037
0.149572
0.15013
0.15071
0.151316
0.151948
0.152608
0.153298
0.15402
0.154775
0.155565
0.156394
0.157261
0.158171
0.159125
0.160126
0.161176
0.162277
0.163433
0.164646
0.165919
0.167255
0.168656
0.170126
0.171668
0.173285
0.174979
0.176755
0.178614
0.180561
0.182598
0.184728
0.186954
0.189279
0.191705
0.194235
0.196872
0.199616
0.202469
0.205434
0.208509
0.211697
0.214996
0.218405
0.221923
0.225547
0.229275
0.2331
0.237019
0.241023
0.245106
0.249257
0.253466
0.257719
0.262003
0.2663
0.270592
0.27486
0.279079
0.283225
0.287271
0.291188
0.294942
0.298502
0.301829
0.304886
0.307632
0.310027
0.312026
0.313585
0.314661
0.315208
0.315183
0.314543
0.313246
0.311257
0.308539
0.305064
0.300806
0.29575
0.289883
0.283205
0.275721
0.267449
0.258417
0.248661
0.238232
0.22719
0.215605
0.203559
0.191143
0.178454
0.165597
0.152683
0.139824
0.127133
0.114719
0.102691
0.0911453
0.0801731
0.0698521
0.0602467
0.0514064
0.0434258
0.0362621
0.0298371
0.024215
0.0193655
0.0152457
0.0118018
0.00897225
0.00668988
0.00488487
0.00348732
0.00242966
0.0016487
0.00108721
0.000694983
0.000429466
0.000255759
0.000146277
8.00352e-05
4.17092e-05
2.06015e-05
9.59189e-06
4.18252e-06
1.696e-06
6.33999e-07
2.16505e-07
6.74117e-08
1.88925e-08
4.10848e-09
1.05778e-09
-3.23523e-10
9.96329e-14
-5.47781e-18
-4.47168e-19
-1.3974e-20
2.66679e-11
0
)
;

boundaryField
{
    fixedWall
    {
        type            calculated;
        value           uniform 0;
    }
    outlet
    {
        type            calculated;
        value           uniform 0;
    }
    defaultFaces
    {
        type            empty;
    }
}


// ************************************************************************* //
