/*--------------------------------*- C++ -*----------------------------------*\
| =========                 |                                                 |
| \\      /  F ield         | OpenFOAM: The Open Source CFD Toolbox           |
|  \\    /   O peration     | Version:  2406                                  |
|   \\  /    A nd           | Website:  www.openfoam.com                      |
|    \\/     M anipulation  |                                                 |
\*---------------------------------------------------------------------------*/
FoamFile
{
    version     2.0;
    format      ascii;
    arch        "LSB;label=32;scalar=64";
    class       volScalarField;
    location    "12";
    object      T;
}
// * * * * * * * * * * * * * * * * * * * * * * * * * * * * * * * * * * * * * //

dimensions      [0 0 0 1 0 0 0];

internalField   nonuniform List<scalar> 
1000
(
304.701
326.399
346.595
365.515
383.331
400.179
416.17
431.391
445.918
459.813
473.131
485.917
498.211
510.049
521.461
532.475
543.115
553.403
563.36
573.002
582.346
591.407
600.198
608.731
617.019
625.071
632.897
640.507
647.908
655.109
662.116
668.937
675.579
682.046
688.346
694.482
700.462
706.288
711.966
717.501
722.896
728.155
733.282
738.281
743.155
747.908
752.542
757.061
761.468
765.765
769.956
774.042
778.027
781.913
785.701
789.396
792.998
796.51
799.935
803.273
806.527
809.7
812.792
815.806
818.744
821.606
824.396
827.114
829.763
832.343
834.856
837.305
839.689
842.011
844.272
846.474
848.618
850.704
852.735
854.712
856.635
858.507
860.328
862.099
863.822
865.498
867.127
868.712
870.252
871.749
873.204
874.618
875.992
877.326
878.623
879.882
881.105
882.292
883.444
884.563
885.649
886.702
887.725
888.716
889.678
890.611
891.515
892.392
893.241
894.065
894.863
895.636
896.385
897.11
897.813
898.493
899.151
899.788
900.404
901.001
901.578
902.136
902.675
903.197
903.702
904.189
904.66
905.115
905.555
905.979
906.389
906.785
907.167
907.536
907.892
908.235
908.566
908.885
909.193
909.49
909.776
910.051
910.317
910.572
910.819
911.056
911.284
911.504
911.715
911.919
912.114
912.303
912.484
912.658
912.825
912.985
913.14
913.288
913.431
913.567
913.699
913.825
913.945
914.061
914.173
914.279
914.381
914.479
914.573
914.663
914.749
914.832
914.911
914.986
915.058
915.128
915.194
915.258
915.318
915.376
915.432
915.485
915.535
915.583
915.63
915.674
915.716
915.756
915.794
915.831
915.865
915.899
915.93
915.96
915.989
916.016
916.042
916.067
916.091
916.113
916.134
916.154
916.174
916.192
916.209
916.226
916.241
916.256
916.27
916.283
916.296
916.308
916.319
916.33
916.34
916.35
916.359
916.368
916.376
916.383
916.391
916.397
916.404
916.41
916.416
916.421
916.426
916.431
916.435
916.44
916.444
916.447
916.451
916.454
916.457
916.46
916.463
916.465
916.467
916.47
916.472
916.474
916.475
916.477
916.478
916.48
916.481
916.482
916.483
916.484
916.485
916.486
916.487
916.488
916.489
916.489
916.49
916.49
916.491
916.491
916.491
916.492
916.492
916.492
916.493
916.493
916.493
916.493
916.493
916.493
916.493
916.493
916.494
916.494
916.494
916.494
916.494
916.494
916.494
916.494
916.494
916.494
916.494
916.494
916.494
916.494
916.494
916.494
916.494
916.494
916.494
916.494
916.494
916.494
916.494
916.494
916.494
916.494
916.494
916.494
916.494
916.494
916.494
916.494
916.494
916.494
916.494
916.494
916.494
916.494
916.494
916.494
916.494
916.494
916.494
916.495
916.495
916.495
916.495
916.495
916.495
916.495
916.495
916.496
916.496
916.496
916.496
916.496
916.496
916.496
916.497
916.497
916.497
916.497
916.497
916.498
916.498
916.498
916.498
916.498
916.498
916.499
916.499
916.499
916.499
916.499
916.5
916.5
916.5
916.5
916.5
916.501
916.501
916.501
916.501
916.502
916.502
916.502
916.502
916.502
916.503
916.503
916.503
916.503
916.503
916.504
916.504
916.504
916.504
916.504
916.505
916.505
916.505
916.505
916.505
916.506
916.506
916.506
916.506
916.506
916.506
916.507
916.507
916.507
916.507
916.507
916.507
916.508
916.508
916.508
916.508
916.508
916.508
916.509
916.509
916.509
916.509
916.509
916.509
916.509
916.509
916.51
916.51
916.51
916.51
916.51
916.51
916.51
916.51
916.51
916.511
916.511
916.511
916.511
916.511
916.511
916.511
916.511
916.511
916.511
916.512
916.512
916.512
916.512
916.512
916.512
916.512
916.512
916.512
916.512
916.512
916.512
916.512
916.512
916.513
916.513
916.513
916.513
916.513
916.513
916.513
916.513
916.513
916.513
916.513
916.513
916.513
916.513
916.513
916.513
916.513
916.513
916.514
916.514
916.514
916.514
916.514
916.514
916.514
916.514
916.514
916.514
916.514
916.514
916.514
916.514
916.514
916.514
916.514
916.514
916.514
916.514
916.514
916.514
916.514
916.514
916.514
916.514
916.514
916.515
916.515
916.515
916.515
916.515
916.515
916.515
916.515
916.515
916.515
916.515
916.515
916.515
916.515
916.515
916.515
916.515
916.515
916.515
916.515
916.515
916.515
916.515
916.515
916.515
916.515
916.515
916.515
916.515
916.515
916.515
916.515
916.515
916.515
916.515
916.515
916.515
916.515
916.515
916.515
916.515
916.515
916.515
916.515
916.515
916.516
916.516
916.516
916.516
916.516
916.516
916.516
916.516
916.516
916.516
916.516
916.516
916.516
916.516
916.516
916.516
916.516
916.516
916.516
916.516
916.516
916.516
916.516
916.516
916.516
916.516
916.516
916.516
916.516
916.516
916.516
916.516
916.516
916.516
916.516
916.516
916.516
916.516
916.517
916.517
916.517
916.517
916.517
916.517
916.517
916.517
916.517
916.517
916.517
916.517
916.517
916.517
916.517
916.517
916.517
916.517
916.517
916.517
916.517
916.517
916.517
916.517
916.517
916.517
916.517
916.517
916.517
916.518
916.518
916.518
916.518
916.518
916.518
916.518
916.518
916.518
916.518
916.518
916.518
916.518
916.518
916.518
916.518
916.518
916.518
916.518
916.518
916.518
916.518
916.518
916.518
916.518
916.518
916.518
916.518
916.518
916.518
916.518
916.518
916.518
916.518
916.518
916.518
916.518
916.518
916.518
916.518
916.518
916.518
916.518
916.518
916.518
916.518
916.518
916.518
916.518
916.518
916.518
916.518
916.518
916.518
916.518
916.518
916.518
916.518
916.518
916.518
916.518
916.518
916.518
916.518
916.518
916.518
916.518
916.518
916.518
916.518
916.518
916.518
916.518
916.518
916.518
916.518
916.518
916.518
916.518
916.518
916.518
916.518
916.518
916.518
916.518
916.518
916.518
916.518
916.518
916.518
916.518
916.518
916.518
916.518
916.518
916.518
916.518
916.518
916.518
916.518
916.518
916.518
916.518
916.518
916.518
916.518
916.518
916.518
916.519
916.519
916.519
916.519
916.519
916.519
916.519
916.519
916.519
916.519
916.519
916.519
916.519
916.519
916.519
916.519
916.519
916.519
916.519
916.519
916.52
916.52
916.52
916.52
916.52
916.52
916.52
916.52
916.52
916.52
916.52
916.52
916.52
916.52
916.52
916.52
916.52
916.52
916.52
916.52
916.52
916.52
916.52
916.52
916.52
916.52
916.519
916.519
916.519
916.519
916.519
916.519
916.519
916.519
916.518
916.518
916.518
916.518
916.518
916.517
916.517
916.517
916.516
916.516
916.516
916.515
916.515
916.514
916.514
916.513
916.513
916.512
916.511
916.51
916.51
916.509
916.508
916.507
916.506
916.505
916.503
916.502
916.5
916.499
916.497
916.495
916.493
916.491
916.489
916.487
916.484
916.481
916.478
916.475
916.472
916.468
916.464
916.46
916.455
916.45
916.445
916.439
916.433
916.427
916.42
916.413
916.405
916.396
916.387
916.377
916.367
916.356
916.344
916.331
916.318
916.303
916.288
916.271
916.254
916.235
916.215
916.194
916.171
916.147
916.121
916.094
916.065
916.034
916.001
915.966
915.929
915.89
915.848
915.804
915.757
915.707
915.654
915.598
915.539
915.476
915.41
915.34
915.266
915.188
915.105
915.018
914.926
914.829
914.727
914.619
914.505
914.385
914.259
914.126
913.986
913.84
913.685
913.523
913.353
913.174
912.986
912.789
912.582
912.366
912.139
911.901
911.653
911.392
911.12
910.835
910.537
910.226
909.901
909.562
909.208
908.839
908.453
908.052
907.633
907.197
906.744
906.271
905.779
905.268
904.736
904.184
903.61
903.013
902.394
901.752
901.085
900.393
899.676
898.933
898.163
897.366
896.54
895.685
894.8
893.885
892.939
891.96
890.949
889.904
888.824
887.709
886.558
885.37
884.144
882.879
881.574
880.228
878.841
877.411
875.937
874.419
872.855
871.244
869.584
867.876
866.117
864.307
862.443
860.526
858.553
856.523
854.434
852.286
850.076
847.803
845.465
843.061
840.588
838.045
835.43
832.74
829.974
827.129
824.204
821.194
818.099
814.915
811.64
808.27
804.803
801.235
797.563
793.784
789.894
785.888
781.764
777.516
773.141
768.634
763.99
759.204
754.271
749.185
743.941
738.532
732.953
727.198
721.26
715.134
708.87
702.346
695.607
688.645
681.454
674.023
666.347
658.415
650.219
641.751
633.001
623.961
614.622
604.976
595.014
584.729
574.114
563.164
551.872
540.237
528.256
515.929
503.259
490.25
476.91
463.252
449.29
435.044
420.539
405.805
390.879
375.805
360.631
345.418
330.233
315.154
300.271
)
;

boundaryField
{
    fixedWall
    {
        type            fixedValue;
        value           uniform 293;
    }
    outlet
    {
        type            inletOutlet;
        inletValue      uniform 293;
        value           uniform 293;
    }
    defaultFaces
    {
        type            empty;
    }
}


// ************************************************************************* //
