/*--------------------------------*- C++ -*----------------------------------*\
| =========                 |                                                 |
| \\      /  F ield         | OpenFOAM: The Open Source CFD Toolbox           |
|  \\    /   O peration     | Version:  2406                                  |
|   \\  /    A nd           | Website:  www.openfoam.com                      |
|    \\/     M anipulation  |                                                 |
\*---------------------------------------------------------------------------*/
FoamFile
{
    version     2.0;
    format      ascii;
    arch        "LSB;label=32;scalar=64";
    class       volVectorField;
    location    "12";
    object      U;
}
// * * * * * * * * * * * * * * * * * * * * * * * * * * * * * * * * * * * * * //

dimensions      [0 1 -1 0 0 0 0];

internalField   nonuniform List<vector> 
1000
(
(-7.40393e-07 0 0)
(-3.54536e-06 0 0)
(-9.12889e-06 0 0)
(-1.68632e-05 0 0)
(-2.62715e-05 0 0)
(-3.70633e-05 0 0)
(-4.90366e-05 0 0)
(-6.20228e-05 0 0)
(-7.58817e-05 0 0)
(-9.04937e-05 0 0)
(-0.000105757 0 0)
(-0.000121587 0 0)
(-0.000137909 0 0)
(-0.000154659 0 0)
(-0.000171781 0 0)
(-0.000189225 0 0)
(-0.000206946 0 0)
(-0.000224907 0 0)
(-0.00024307 0 0)
(-0.000261406 0 0)
(-0.000279884 0 0)
(-0.00029848 0 0)
(-0.000317169 0 0)
(-0.00033593 0 0)
(-0.000354743 0 0)
(-0.00037359 0 0)
(-0.000392453 0 0)
(-0.000411317 0 0)
(-0.000430168 0 0)
(-0.000448993 0 0)
(-0.000467778 0 0)
(-0.000486512 0 0)
(-0.000505185 0 0)
(-0.000523787 0 0)
(-0.000542308 0 0)
(-0.000560738 0 0)
(-0.00057907 0 0)
(-0.000597297 0 0)
(-0.000615409 0 0)
(-0.000633402 0 0)
(-0.000651269 0 0)
(-0.000669004 0 0)
(-0.0006866 0 0)
(-0.000704054 0 0)
(-0.000721359 0 0)
(-0.000738511 0 0)
(-0.000755507 0 0)
(-0.000772341 0 0)
(-0.000789011 0 0)
(-0.000805512 0 0)
(-0.000821843 0 0)
(-0.000837999 0 0)
(-0.000853977 0 0)
(-0.000869776 0 0)
(-0.000885393 0 0)
(-0.000900825 0 0)
(-0.000916072 0 0)
(-0.00093113 0 0)
(-0.000945999 0 0)
(-0.000960677 0 0)
(-0.000975162 0 0)
(-0.000989455 0 0)
(-0.00100355 0 0)
(-0.00101746 0 0)
(-0.00103116 0 0)
(-0.00104467 0 0)
(-0.00105799 0 0)
(-0.0010711 0 0)
(-0.00108402 0 0)
(-0.00109675 0 0)
(-0.00110927 0 0)
(-0.0011216 0 0)
(-0.00113373 0 0)
(-0.00114567 0 0)
(-0.00115741 0 0)
(-0.00116895 0 0)
(-0.0011803 0 0)
(-0.00119146 0 0)
(-0.00120242 0 0)
(-0.00121319 0 0)
(-0.00122377 0 0)
(-0.00123416 0 0)
(-0.00124436 0 0)
(-0.00125437 0 0)
(-0.0012642 0 0)
(-0.00127384 0 0)
(-0.0012833 0 0)
(-0.00129258 0 0)
(-0.00130167 0 0)
(-0.00131059 0 0)
(-0.00131932 0 0)
(-0.00132789 0 0)
(-0.00133628 0 0)
(-0.00134449 0 0)
(-0.00135254 0 0)
(-0.00136041 0 0)
(-0.00136812 0 0)
(-0.00137567 0 0)
(-0.00138305 0 0)
(-0.00139027 0 0)
(-0.00139733 0 0)
(-0.00140424 0 0)
(-0.00141099 0 0)
(-0.00141758 0 0)
(-0.00142403 0 0)
(-0.00143032 0 0)
(-0.00143647 0 0)
(-0.00144248 0 0)
(-0.00144834 0 0)
(-0.00145406 0 0)
(-0.00145964 0 0)
(-0.00146509 0 0)
(-0.0014704 0 0)
(-0.00147558 0 0)
(-0.00148064 0 0)
(-0.00148556 0 0)
(-0.00149036 0 0)
(-0.00149504 0 0)
(-0.00149959 0 0)
(-0.00150403 0 0)
(-0.00150835 0 0)
(-0.00151255 0 0)
(-0.00151664 0 0)
(-0.00152063 0 0)
(-0.0015245 0 0)
(-0.00152827 0 0)
(-0.00153193 0 0)
(-0.0015355 0 0)
(-0.00153896 0 0)
(-0.00154232 0 0)
(-0.00154559 0 0)
(-0.00154877 0 0)
(-0.00155185 0 0)
(-0.00155485 0 0)
(-0.00155775 0 0)
(-0.00156058 0 0)
(-0.00156331 0 0)
(-0.00156597 0 0)
(-0.00156854 0 0)
(-0.00157104 0 0)
(-0.00157346 0 0)
(-0.00157581 0 0)
(-0.00157808 0 0)
(-0.00158029 0 0)
(-0.00158242 0 0)
(-0.00158449 0 0)
(-0.00158649 0 0)
(-0.00158842 0 0)
(-0.0015903 0 0)
(-0.00159211 0 0)
(-0.00159386 0 0)
(-0.00159556 0 0)
(-0.0015972 0 0)
(-0.00159878 0 0)
(-0.00160031 0 0)
(-0.00160179 0 0)
(-0.00160322 0 0)
(-0.0016046 0 0)
(-0.00160594 0 0)
(-0.00160723 0 0)
(-0.00160847 0 0)
(-0.00160967 0 0)
(-0.00161082 0 0)
(-0.00161193 0 0)
(-0.001613 0 0)
(-0.00161403 0 0)
(-0.00161503 0 0)
(-0.00161599 0 0)
(-0.00161693 0 0)
(-0.00161782 0 0)
(-0.00161869 0 0)
(-0.00161951 0 0)
(-0.00162031 0 0)
(-0.00162108 0 0)
(-0.00162182 0 0)
(-0.00162253 0 0)
(-0.00162321 0 0)
(-0.00162386 0 0)
(-0.00162449 0 0)
(-0.0016251 0 0)
(-0.00162568 0 0)
(-0.00162624 0 0)
(-0.00162678 0 0)
(-0.0016273 0 0)
(-0.00162779 0 0)
(-0.00162827 0 0)
(-0.00162873 0 0)
(-0.00162917 0 0)
(-0.00162959 0 0)
(-0.00162999 0 0)
(-0.00163038 0 0)
(-0.00163075 0 0)
(-0.0016311 0 0)
(-0.00163144 0 0)
(-0.00163177 0 0)
(-0.00163208 0 0)
(-0.00163238 0 0)
(-0.00163266 0 0)
(-0.00163293 0 0)
(-0.0016332 0 0)
(-0.00163345 0 0)
(-0.00163368 0 0)
(-0.00163391 0 0)
(-0.00163413 0 0)
(-0.00163434 0 0)
(-0.00163454 0 0)
(-0.00163473 0 0)
(-0.00163491 0 0)
(-0.00163508 0 0)
(-0.00163525 0 0)
(-0.00163541 0 0)
(-0.00163556 0 0)
(-0.0016357 0 0)
(-0.00163584 0 0)
(-0.00163597 0 0)
(-0.00163609 0 0)
(-0.00163621 0 0)
(-0.00163632 0 0)
(-0.00163643 0 0)
(-0.00163653 0 0)
(-0.00163663 0 0)
(-0.00163672 0 0)
(-0.00163681 0 0)
(-0.00163689 0 0)
(-0.00163697 0 0)
(-0.00163705 0 0)
(-0.00163712 0 0)
(-0.00163719 0 0)
(-0.00163725 0 0)
(-0.00163731 0 0)
(-0.00163737 0 0)
(-0.00163742 0 0)
(-0.00163748 0 0)
(-0.00163753 0 0)
(-0.00163757 0 0)
(-0.00163762 0 0)
(-0.00163766 0 0)
(-0.0016377 0 0)
(-0.00163774 0 0)
(-0.00163777 0 0)
(-0.0016378 0 0)
(-0.00163784 0 0)
(-0.00163787 0 0)
(-0.00163789 0 0)
(-0.00163792 0 0)
(-0.00163794 0 0)
(-0.00163797 0 0)
(-0.00163799 0 0)
(-0.00163801 0 0)
(-0.00163803 0 0)
(-0.00163805 0 0)
(-0.00163807 0 0)
(-0.00163808 0 0)
(-0.0016381 0 0)
(-0.00163811 0 0)
(-0.00163812 0 0)
(-0.00163814 0 0)
(-0.00163815 0 0)
(-0.00163816 0 0)
(-0.00163817 0 0)
(-0.00163818 0 0)
(-0.00163819 0 0)
(-0.00163819 0 0)
(-0.0016382 0 0)
(-0.00163821 0 0)
(-0.00163821 0 0)
(-0.00163822 0 0)
(-0.00163823 0 0)
(-0.00163823 0 0)
(-0.00163823 0 0)
(-0.00163824 0 0)
(-0.00163824 0 0)
(-0.00163824 0 0)
(-0.00163825 0 0)
(-0.00163825 0 0)
(-0.00163825 0 0)
(-0.00163825 0 0)
(-0.00163825 0 0)
(-0.00163826 0 0)
(-0.00163826 0 0)
(-0.00163826 0 0)
(-0.00163826 0 0)
(-0.00163826 0 0)
(-0.00163826 0 0)
(-0.00163826 0 0)
(-0.00163826 0 0)
(-0.00163826 0 0)
(-0.00163826 0 0)
(-0.00163826 0 0)
(-0.00163826 0 0)
(-0.00163826 0 0)
(-0.00163826 0 0)
(-0.00163826 0 0)
(-0.00163826 0 0)
(-0.00163826 0 0)
(-0.00163825 0 0)
(-0.00163826 0 0)
(-0.00163825 0 0)
(-0.00163825 0 0)
(-0.00163825 0 0)
(-0.00163825 0 0)
(-0.00163825 0 0)
(-0.00163825 0 0)
(-0.00163824 0 0)
(-0.00163824 0 0)
(-0.00163824 0 0)
(-0.00163824 0 0)
(-0.00163824 0 0)
(-0.00163824 0 0)
(-0.00163823 0 0)
(-0.00163824 0 0)
(-0.00163823 0 0)
(-0.00163823 0 0)
(-0.00163823 0 0)
(-0.00163823 0 0)
(-0.00163823 0 0)
(-0.00163823 0 0)
(-0.00163823 0 0)
(-0.00163822 0 0)
(-0.00163823 0 0)
(-0.00163822 0 0)
(-0.00163822 0 0)
(-0.00163822 0 0)
(-0.00163822 0 0)
(-0.00163822 0 0)
(-0.00163822 0 0)
(-0.00163822 0 0)
(-0.00163821 0 0)
(-0.00163822 0 0)
(-0.00163821 0 0)
(-0.00163821 0 0)
(-0.00163821 0 0)
(-0.00163821 0 0)
(-0.00163821 0 0)
(-0.00163821 0 0)
(-0.00163821 0 0)
(-0.00163821 0 0)
(-0.00163821 0 0)
(-0.0016382 0 0)
(-0.00163821 0 0)
(-0.0016382 0 0)
(-0.0016382 0 0)
(-0.0016382 0 0)
(-0.0016382 0 0)
(-0.0016382 0 0)
(-0.0016382 0 0)
(-0.0016382 0 0)
(-0.0016382 0 0)
(-0.0016382 0 0)
(-0.0016382 0 0)
(-0.0016382 0 0)
(-0.0016382 0 0)
(-0.0016382 0 0)
(-0.0016382 0 0)
(-0.0016382 0 0)
(-0.0016382 0 0)
(-0.0016382 0 0)
(-0.0016382 0 0)
(-0.0016382 0 0)
(-0.0016382 0 0)
(-0.0016382 0 0)
(-0.0016382 0 0)
(-0.0016382 0 0)
(-0.0016382 0 0)
(-0.0016382 0 0)
(-0.0016382 0 0)
(-0.0016382 0 0)
(-0.0016382 0 0)
(-0.0016382 0 0)
(-0.0016382 0 0)
(-0.0016382 0 0)
(-0.0016382 0 0)
(-0.0016382 0 0)
(-0.0016382 0 0)
(-0.0016382 0 0)
(-0.0016382 0 0)
(-0.0016382 0 0)
(-0.0016382 0 0)
(-0.0016382 0 0)
(-0.00163821 0 0)
(-0.0016382 0 0)
(-0.00163821 0 0)
(-0.00163821 0 0)
(-0.00163821 0 0)
(-0.00163821 0 0)
(-0.00163821 0 0)
(-0.00163821 0 0)
(-0.00163821 0 0)
(-0.00163821 0 0)
(-0.00163821 0 0)
(-0.00163821 0 0)
(-0.00163821 0 0)
(-0.00163821 0 0)
(-0.00163821 0 0)
(-0.00163821 0 0)
(-0.00163821 0 0)
(-0.00163821 0 0)
(-0.00163821 0 0)
(-0.00163821 0 0)
(-0.00163821 0 0)
(-0.00163822 0 0)
(-0.00163822 0 0)
(-0.00163822 0 0)
(-0.00163822 0 0)
(-0.00163822 0 0)
(-0.00163822 0 0)
(-0.00163822 0 0)
(-0.00163822 0 0)
(-0.00163822 0 0)
(-0.00163822 0 0)
(-0.00163822 0 0)
(-0.00163822 0 0)
(-0.00163822 0 0)
(-0.00163822 0 0)
(-0.00163822 0 0)
(-0.00163822 0 0)
(-0.00163822 0 0)
(-0.00163822 0 0)
(-0.00163822 0 0)
(-0.00163822 0 0)
(-0.00163822 0 0)
(-0.00163822 0 0)
(-0.00163822 0 0)
(-0.00163822 0 0)
(-0.00163823 0 0)
(-0.00163822 0 0)
(-0.00163823 0 0)
(-0.00163823 0 0)
(-0.00163823 0 0)
(-0.00163823 0 0)
(-0.00163823 0 0)
(-0.00163823 0 0)
(-0.00163823 0 0)
(-0.00163823 0 0)
(-0.00163823 0 0)
(-0.00163823 0 0)
(-0.00163823 0 0)
(-0.00163823 0 0)
(-0.00163823 0 0)
(-0.00163823 0 0)
(-0.00163823 0 0)
(-0.00163823 0 0)
(-0.00163823 0 0)
(-0.00163823 0 0)
(-0.00163823 0 0)
(-0.00163823 0 0)
(-0.00163823 0 0)
(-0.00163823 0 0)
(-0.00163823 0 0)
(-0.00163823 0 0)
(-0.00163823 0 0)
(-0.00163823 0 0)
(-0.00163823 0 0)
(-0.00163823 0 0)
(-0.00163823 0 0)
(-0.00163823 0 0)
(-0.00163823 0 0)
(-0.00163823 0 0)
(-0.00163823 0 0)
(-0.00163823 0 0)
(-0.00163823 0 0)
(-0.00163823 0 0)
(-0.00163823 0 0)
(-0.00163823 0 0)
(-0.00163823 0 0)
(-0.00163823 0 0)
(-0.00163823 0 0)
(-0.00163823 0 0)
(-0.00163823 0 0)
(-0.00163823 0 0)
(-0.00163823 0 0)
(-0.00163823 0 0)
(-0.00163823 0 0)
(-0.00163823 0 0)
(-0.00163823 0 0)
(-0.00163823 0 0)
(-0.00163823 0 0)
(-0.00163823 0 0)
(-0.00163823 0 0)
(-0.00163823 0 0)
(-0.00163823 0 0)
(-0.00163823 0 0)
(-0.00163823 0 0)
(-0.00163823 0 0)
(-0.00163823 0 0)
(-0.00163823 0 0)
(-0.00163823 0 0)
(-0.00163823 0 0)
(-0.00163823 0 0)
(-0.00163823 0 0)
(-0.00163823 0 0)
(-0.00163823 0 0)
(-0.00163823 0 0)
(-0.00163823 0 0)
(-0.00163823 0 0)
(-0.00163823 0 0)
(-0.00163823 0 0)
(-0.00163823 0 0)
(-0.00163823 0 0)
(-0.00163823 0 0)
(-0.00163823 0 0)
(-0.00163823 0 0)
(-0.00163823 0 0)
(-0.00163823 0 0)
(-0.00163823 0 0)
(-0.00163823 0 0)
(-0.00163823 0 0)
(-0.00163823 0 0)
(-0.00163823 0 0)
(-0.00163823 0 0)
(-0.00163823 0 0)
(-0.00163823 0 0)
(-0.00163823 0 0)
(-0.00163823 0 0)
(-0.00163823 0 0)
(-0.00163823 0 0)
(-0.00163823 0 0)
(-0.00163823 0 0)
(-0.00163823 0 0)
(-0.00163823 0 0)
(-0.00163823 0 0)
(-0.00163823 0 0)
(-0.00163823 0 0)
(-0.00163823 0 0)
(-0.00163823 0 0)
(-0.00163823 0 0)
(-0.00163823 0 0)
(-0.00163822 0 0)
(-0.00163823 0 0)
(-0.00163822 0 0)
(-0.00163823 0 0)
(-0.00163822 0 0)
(-0.00163823 0 0)
(-0.00163822 0 0)
(-0.00163822 0 0)
(-0.00163823 0 0)
(-0.00163822 0 0)
(-0.00163822 0 0)
(-0.00163822 0 0)
(-0.00163822 0 0)
(-0.00163822 0 0)
(-0.00163822 0 0)
(-0.00163822 0 0)
(-0.00163822 0 0)
(-0.00163822 0 0)
(-0.00163822 0 0)
(-0.00163822 0 0)
(-0.00163822 0 0)
(-0.00163822 0 0)
(-0.00163822 0 0)
(-0.00163822 0 0)
(-0.00163822 0 0)
(-0.00163822 0 0)
(-0.00163822 0 0)
(-0.00163822 0 0)
(-0.00163822 0 0)
(-0.00163822 0 0)
(-0.00163822 0 0)
(-0.00163822 0 0)
(-0.00163822 0 0)
(-0.00163822 0 0)
(-0.00163822 0 0)
(-0.00163822 0 0)
(-0.00163822 0 0)
(-0.00163822 0 0)
(-0.00163822 0 0)
(-0.00163822 0 0)
(-0.00163821 0 0)
(-0.00163822 0 0)
(-0.00163821 0 0)
(-0.00163822 0 0)
(-0.00163821 0 0)
(-0.00163822 0 0)
(-0.00163822 0 0)
(-0.00163821 0 0)
(-0.00163822 0 0)
(-0.00163821 0 0)
(-0.00163822 0 0)
(-0.00163821 0 0)
(-0.00163822 0 0)
(-0.00163821 0 0)
(-0.00163821 0 0)
(-0.00163821 0 0)
(-0.00163821 0 0)
(-0.00163821 0 0)
(-0.00163821 0 0)
(-0.00163821 0 0)
(-0.00163821 0 0)
(-0.00163821 0 0)
(-0.00163821 0 0)
(-0.00163821 0 0)
(-0.00163821 0 0)
(-0.00163822 0 0)
(-0.00163821 0 0)
(-0.00163822 0 0)
(-0.00163821 0 0)
(-0.00163821 0 0)
(-0.00163821 0 0)
(-0.00163821 0 0)
(-0.00163822 0 0)
(-0.00163821 0 0)
(-0.00163821 0 0)
(-0.00163821 0 0)
(-0.00163822 0 0)
(-0.00163821 0 0)
(-0.00163821 0 0)
(-0.00163821 0 0)
(-0.00163821 0 0)
(-0.00163822 0 0)
(-0.00163821 0 0)
(-0.00163821 0 0)
(-0.00163821 0 0)
(-0.00163821 0 0)
(-0.00163821 0 0)
(-0.00163821 0 0)
(-0.00163822 0 0)
(-0.00163822 0 0)
(-0.00163821 0 0)
(-0.00163822 0 0)
(-0.00163822 0 0)
(-0.00163821 0 0)
(-0.00163822 0 0)
(-0.00163821 0 0)
(-0.00163822 0 0)
(-0.00163822 0 0)
(-0.00163821 0 0)
(-0.00163822 0 0)
(-0.00163822 0 0)
(-0.00163822 0 0)
(-0.00163822 0 0)
(-0.00163821 0 0)
(-0.00163822 0 0)
(-0.00163822 0 0)
(-0.00163821 0 0)
(-0.00163822 0 0)
(-0.00163821 0 0)
(-0.00163822 0 0)
(-0.00163821 0 0)
(-0.00163822 0 0)
(-0.00163822 0 0)
(-0.00163821 0 0)
(-0.00163822 0 0)
(-0.00163821 0 0)
(-0.00163822 0 0)
(-0.00163822 0 0)
(-0.00163821 0 0)
(-0.00163822 0 0)
(-0.00163821 0 0)
(-0.00163822 0 0)
(-0.00163821 0 0)
(-0.00163821 0 0)
(-0.00163822 0 0)
(-0.00163821 0 0)
(-0.00163822 0 0)
(-0.00163821 0 0)
(-0.00163822 0 0)
(-0.00163821 0 0)
(-0.00163821 0 0)
(-0.00163821 0 0)
(-0.00163821 0 0)
(-0.00163821 0 0)
(-0.00163821 0 0)
(-0.00163821 0 0)
(-0.00163821 0 0)
(-0.00163821 0 0)
(-0.00163821 0 0)
(-0.00163821 0 0)
(-0.00163821 0 0)
(-0.00163821 0 0)
(-0.00163821 0 0)
(-0.00163821 0 0)
(-0.00163821 0 0)
(-0.00163821 0 0)
(-0.00163821 0 0)
(-0.00163821 0 0)
(-0.0016382 0 0)
(-0.00163821 0 0)
(-0.0016382 0 0)
(-0.00163821 0 0)
(-0.0016382 0 0)
(-0.0016382 0 0)
(-0.0016382 0 0)
(-0.0016382 0 0)
(-0.0016382 0 0)
(-0.0016382 0 0)
(-0.0016382 0 0)
(-0.0016382 0 0)
(-0.0016382 0 0)
(-0.0016382 0 0)
(-0.0016382 0 0)
(-0.0016382 0 0)
(-0.00163819 0 0)
(-0.0016382 0 0)
(-0.0016382 0 0)
(-0.00163819 0 0)
(-0.0016382 0 0)
(-0.00163819 0 0)
(-0.00163819 0 0)
(-0.00163819 0 0)
(-0.00163819 0 0)
(-0.00163819 0 0)
(-0.00163819 0 0)
(-0.00163819 0 0)
(-0.00163819 0 0)
(-0.00163819 0 0)
(-0.00163819 0 0)
(-0.00163819 0 0)
(-0.00163819 0 0)
(-0.00163819 0 0)
(-0.00163819 0 0)
(-0.00163819 0 0)
(-0.00163819 0 0)
(-0.00163819 0 0)
(-0.00163819 0 0)
(-0.00163819 0 0)
(-0.00163819 0 0)
(-0.00163819 0 0)
(-0.00163819 0 0)
(-0.00163819 0 0)
(-0.00163819 0 0)
(-0.00163819 0 0)
(-0.00163819 0 0)
(-0.00163819 0 0)
(-0.00163819 0 0)
(-0.00163819 0 0)
(-0.00163819 0 0)
(-0.00163819 0 0)
(-0.00163819 0 0)
(-0.00163819 0 0)
(-0.00163819 0 0)
(-0.0016382 0 0)
(-0.00163819 0 0)
(-0.0016382 0 0)
(-0.0016382 0 0)
(-0.0016382 0 0)
(-0.0016382 0 0)
(-0.0016382 0 0)
(-0.0016382 0 0)
(-0.0016382 0 0)
(-0.0016382 0 0)
(-0.0016382 0 0)
(-0.00163821 0 0)
(-0.00163821 0 0)
(-0.00163821 0 0)
(-0.00163821 0 0)
(-0.00163821 0 0)
(-0.00163822 0 0)
(-0.00163822 0 0)
(-0.00163822 0 0)
(-0.00163822 0 0)
(-0.00163823 0 0)
(-0.00163823 0 0)
(-0.00163823 0 0)
(-0.00163823 0 0)
(-0.00163824 0 0)
(-0.00163824 0 0)
(-0.00163825 0 0)
(-0.00163825 0 0)
(-0.00163826 0 0)
(-0.00163826 0 0)
(-0.00163827 0 0)
(-0.00163827 0 0)
(-0.00163828 0 0)
(-0.00163829 0 0)
(-0.00163829 0 0)
(-0.0016383 0 0)
(-0.00163831 0 0)
(-0.00163832 0 0)
(-0.00163833 0 0)
(-0.00163834 0 0)
(-0.00163835 0 0)
(-0.00163836 0 0)
(-0.00163838 0 0)
(-0.00163839 0 0)
(-0.0016384 0 0)
(-0.00163842 0 0)
(-0.00163844 0 0)
(-0.00163846 0 0)
(-0.00163848 0 0)
(-0.0016385 0 0)
(-0.00163852 0 0)
(-0.00163855 0 0)
(-0.00163857 0 0)
(-0.0016386 0 0)
(-0.00163863 0 0)
(-0.00163867 0 0)
(-0.0016387 0 0)
(-0.00163874 0 0)
(-0.00163878 0 0)
(-0.00163883 0 0)
(-0.00163888 0 0)
(-0.00163893 0 0)
(-0.00163898 0 0)
(-0.00163904 0 0)
(-0.00163911 0 0)
(-0.00163917 0 0)
(-0.00163925 0 0)
(-0.00163932 0 0)
(-0.00163941 0 0)
(-0.0016395 0 0)
(-0.00163959 0 0)
(-0.0016397 0 0)
(-0.00163981 0 0)
(-0.00163992 0 0)
(-0.00164005 0 0)
(-0.00164018 0 0)
(-0.00164032 0 0)
(-0.00164048 0 0)
(-0.00164064 0 0)
(-0.00164081 0 0)
(-0.001641 0 0)
(-0.00164119 0 0)
(-0.0016414 0 0)
(-0.00164162 0 0)
(-0.00164186 0 0)
(-0.00164211 0 0)
(-0.00164238 0 0)
(-0.00164267 0 0)
(-0.00164297 0 0)
(-0.0016433 0 0)
(-0.00164364 0 0)
(-0.001644 0 0)
(-0.00164439 0 0)
(-0.0016448 0 0)
(-0.00164523 0 0)
(-0.00164569 0 0)
(-0.00164618 0 0)
(-0.0016467 0 0)
(-0.00164724 0 0)
(-0.00164782 0 0)
(-0.00164843 0 0)
(-0.00164908 0 0)
(-0.00164976 0 0)
(-0.00165049 0 0)
(-0.00165125 0 0)
(-0.00165205 0 0)
(-0.0016529 0 0)
(-0.0016538 0 0)
(-0.00165474 0 0)
(-0.00165574 0 0)
(-0.00165679 0 0)
(-0.00165789 0 0)
(-0.00165906 0 0)
(-0.00166028 0 0)
(-0.00166157 0 0)
(-0.00166292 0 0)
(-0.00166434 0 0)
(-0.00166583 0 0)
(-0.0016674 0 0)
(-0.00166905 0 0)
(-0.00167077 0 0)
(-0.00167258 0 0)
(-0.00167448 0 0)
(-0.00167647 0 0)
(-0.00167855 0 0)
(-0.00168073 0 0)
(-0.00168301 0 0)
(-0.0016854 0 0)
(-0.0016879 0 0)
(-0.0016905 0 0)
(-0.00169323 0 0)
(-0.00169607 0 0)
(-0.00169904 0 0)
(-0.00170214 0 0)
(-0.00170537 0 0)
(-0.00170874 0 0)
(-0.00171225 0 0)
(-0.0017159 0 0)
(-0.00171971 0 0)
(-0.00172367 0 0)
(-0.00172779 0 0)
(-0.00173207 0 0)
(-0.00173652 0 0)
(-0.00174114 0 0)
(-0.00174594 0 0)
(-0.00175093 0 0)
(-0.0017561 0 0)
(-0.00176146 0 0)
(-0.00176702 0 0)
(-0.00177277 0 0)
(-0.00177874 0 0)
(-0.00178491 0 0)
(-0.0017913 0 0)
(-0.0017979 0 0)
(-0.00180473 0 0)
(-0.00181178 0 0)
(-0.00181907 0 0)
(-0.00182659 0 0)
(-0.00183436 0 0)
(-0.00184236 0 0)
(-0.00185062 0 0)
(-0.00185913 0 0)
(-0.00186789 0 0)
(-0.00187691 0 0)
(-0.00188619 0 0)
(-0.00189573 0 0)
(-0.00190555 0 0)
(-0.00191563 0 0)
(-0.00192599 0 0)
(-0.00193663 0 0)
(-0.00194754 0 0)
(-0.00195873 0 0)
(-0.0019702 0 0)
(-0.00198195 0 0)
(-0.00199398 0 0)
(-0.0020063 0 0)
(-0.0020189 0 0)
(-0.00203178 0 0)
(-0.00204495 0 0)
(-0.0020584 0 0)
(-0.00207212 0 0)
(-0.00208613 0 0)
(-0.00210041 0 0)
(-0.00211497 0 0)
(-0.0021298 0 0)
(-0.0021449 0 0)
(-0.00216026 0 0)
(-0.00217587 0 0)
(-0.00219174 0 0)
(-0.00220786 0 0)
(-0.00222423 0 0)
(-0.00224082 0 0)
(-0.00225764 0 0)
(-0.00227469 0 0)
(-0.00229194 0 0)
(-0.0023094 0 0)
(-0.00232704 0 0)
(-0.00234487 0 0)
(-0.00236286 0 0)
(-0.00238101 0 0)
(-0.0023993 0 0)
(-0.00241773 0 0)
(-0.00243627 0 0)
(-0.0024549 0 0)
(-0.00247362 0 0)
(-0.00249241 0 0)
(-0.00251124 0 0)
(-0.0025301 0 0)
(-0.00254897 0 0)
(-0.00256782 0 0)
(-0.00258664 0 0)
(-0.00260541 0 0)
(-0.00262409 0 0)
(-0.00264266 0 0)
(-0.0026611 0 0)
(-0.00267937 0 0)
(-0.00269746 0 0)
(-0.00271533 0 0)
(-0.00273294 0 0)
(-0.00275028 0 0)
(-0.00276729 0 0)
(-0.00278395 0 0)
(-0.00280022 0 0)
(-0.00281606 0 0)
(-0.00283142 0 0)
(-0.00284627 0 0)
(-0.00286056 0 0)
(-0.00287424 0 0)
(-0.00288724 0 0)
(-0.0028995 0 0)
(-0.00291095 0 0)
(-0.00292154 0 0)
(-0.00293098 0 0)
(-0.00293918 0 0)
(-0.0029471 0 0)
(-0.00295487 0 0)
(-0.00296134 0 0)
(-0.00296624 0 0)
(-0.00296977 0 0)
(-0.00297185 0 0)
(-0.00297245 0 0)
(-0.00297151 0 0)
(-0.00296892 0 0)
(-0.00296464 0 0)
(-0.00295852 0 0)
(-0.00295048 0 0)
(-0.0029404 0 0)
(-0.00292817 0 0)
(-0.00291367 0 0)
(-0.00289675 0 0)
(-0.0028773 0 0)
(-0.00285517 0 0)
(-0.00283021 0 0)
(-0.00280228 0 0)
(-0.00277122 0 0)
(-0.0027369 0 0)
(-0.00269914 0 0)
(-0.0026578 0 0)
(-0.00261272 0 0)
(-0.00256377 0 0)
(-0.0025108 0 0)
(-0.00245368 0 0)
(-0.0023923 0 0)
(-0.00232654 0 0)
(-0.00225646 0 0)
(-0.00218232 0 0)
(-0.00210411 0 0)
(-0.00201871 0 0)
(-0.00191927 0 0)
(-0.00182124 0 0)
)
;

boundaryField
{
    fixedWall
    {
        type            fixedValue;
        value           uniform (0 0 0);
    }
    outlet
    {
        type            pressureInletOutletVelocity;
        value           uniform (-0.00182124 0 0);
    }
    defaultFaces
    {
        type            empty;
    }
}


// ************************************************************************* //
