/*--------------------------------*- C++ -*----------------------------------*\
| =========                 |                                                 |
| \\      /  F ield         | OpenFOAM: The Open Source CFD Toolbox           |
|  \\    /   O peration     | Version:  2406                                  |
|   \\  /    A nd           | Website:  www.openfoam.com                      |
|    \\/     M anipulation  |                                                 |
\*---------------------------------------------------------------------------*/
FoamFile
{
    version     2.0;
    format      ascii;
    arch        "LSB;label=32;scalar=64";
    class       volScalarField;
    location    "2.5";
    object      CO2;
}
// * * * * * * * * * * * * * * * * * * * * * * * * * * * * * * * * * * * * * //

dimensions      [0 0 0 0 0 0 0];

internalField   nonuniform List<scalar> 
1000
(
0.0709257
0.0709257
0.0709257
0.0709257
0.0709257
0.0709257
0.0709257
0.0709257
0.0709257
0.0709257
0.0709258
0.0709258
0.0709258
0.0709258
0.0709258
0.0709258
0.0709258
0.0709258
0.0709259
0.0709259
0.0709259
0.0709259
0.0709259
0.0709259
0.070926
0.070926
0.070926
0.070926
0.070926
0.070926
0.070926
0.0709261
0.0709261
0.0709261
0.0709261
0.0709261
0.0709261
0.0709261
0.0709261
0.0709262
0.0709262
0.0709262
0.0709262
0.0709262
0.0709262
0.0709262
0.0709262
0.0709262
0.0709262
0.0709262
0.0709262
0.0709262
0.0709262
0.0709262
0.0709262
0.0709262
0.0709262
0.0709262
0.0709262
0.0709262
0.0709262
0.0709262
0.0709262
0.0709262
0.0709262
0.0709262
0.0709262
0.0709262
0.0709262
0.0709262
0.0709262
0.0709262
0.0709262
0.0709262
0.0709262
0.0709262
0.0709262
0.0709262
0.0709262
0.0709262
0.0709262
0.0709262
0.0709262
0.0709262
0.0709262
0.0709262
0.0709262
0.0709262
0.0709262
0.0709262
0.0709262
0.0709262
0.0709262
0.0709262
0.0709262
0.0709262
0.0709262
0.0709262
0.0709261
0.0709261
0.0709261
0.0709261
0.0709261
0.0709261
0.0709261
0.0709261
0.0709261
0.0709261
0.0709261
0.0709261
0.0709261
0.0709261
0.0709261
0.0709261
0.0709261
0.0709261
0.0709261
0.0709261
0.0709261
0.0709261
0.0709261
0.0709261
0.0709261
0.0709261
0.0709261
0.0709261
0.0709261
0.0709261
0.0709261
0.0709261
0.0709261
0.0709261
0.070926
0.070926
0.070926
0.070926
0.070926
0.070926
0.070926
0.070926
0.070926
0.070926
0.070926
0.070926
0.070926
0.070926
0.070926
0.070926
0.070926
0.070926
0.070926
0.070926
0.070926
0.070926
0.070926
0.070926
0.070926
0.070926
0.070926
0.070926
0.0709259
0.0709259
0.0709259
0.0709259
0.0709259
0.0709259
0.0709259
0.0709259
0.0709259
0.0709259
0.0709259
0.0709259
0.0709259
0.0709259
0.0709259
0.0709259
0.0709259
0.0709259
0.0709259
0.0709259
0.0709259
0.0709259
0.0709258
0.0709258
0.0709258
0.0709258
0.0709258
0.0709258
0.0709258
0.0709258
0.0709258
0.0709258
0.0709258
0.0709258
0.0709258
0.0709258
0.0709258
0.0709258
0.0709258
0.0709258
0.0709257
0.0709257
0.0709257
0.0709257
0.0709257
0.0709257
0.0709257
0.0709257
0.0709257
0.0709257
0.0709257
0.0709257
0.0709257
0.0709257
0.0709257
0.0709256
0.0709256
0.0709256
0.0709256
0.0709256
0.0709256
0.0709256
0.0709256
0.0709256
0.0709256
0.0709256
0.0709256
0.0709256
0.0709255
0.0709255
0.0709255
0.0709255
0.0709255
0.0709255
0.0709255
0.0709255
0.0709255
0.0709255
0.0709255
0.0709254
0.0709254
0.0709254
0.0709254
0.0709254
0.0709254
0.0709254
0.0709254
0.0709254
0.0709254
0.0709253
0.0709253
0.0709253
0.0709253
0.0709253
0.0709253
0.0709253
0.0709253
0.0709252
0.0709252
0.0709252
0.0709252
0.0709252
0.0709252
0.0709252
0.0709252
0.0709251
0.0709251
0.0709251
0.0709251
0.0709251
0.0709251
0.070925
0.070925
0.070925
0.070925
0.070925
0.070925
0.0709249
0.0709249
0.0709249
0.0709249
0.0709249
0.0709249
0.0709248
0.0709248
0.0709248
0.0709248
0.0709247
0.0709247
0.0709247
0.0709247
0.0709247
0.0709246
0.0709246
0.0709246
0.0709246
0.0709245
0.0709245
0.0709245
0.0709245
0.0709244
0.0709244
0.0709244
0.0709243
0.0709243
0.0709243
0.0709242
0.0709242
0.0709242
0.0709241
0.0709241
0.0709241
0.070924
0.070924
0.0709239
0.0709239
0.0709239
0.0709238
0.0709238
0.0709237
0.0709237
0.0709236
0.0709236
0.0709235
0.0709235
0.0709234
0.0709234
0.0709233
0.0709232
0.0709232
0.0709231
0.070923
0.070923
0.0709229
0.0709228
0.0709227
0.0709226
0.0709225
0.0709225
0.0709224
0.0709223
0.0709222
0.070922
0.0709219
0.0709218
0.0709217
0.0709216
0.0709214
0.0709213
0.0709211
0.070921
0.0709208
0.0709206
0.0709204
0.0709202
0.07092
0.0709198
0.0709195
0.0709192
0.070919
0.0709187
0.0709183
0.070918
0.0709176
0.0709172
0.0709167
0.0709162
0.0709157
0.0709151
0.0709144
0.0709136
0.0709128
0.0709119
0.0709108
0.0709096
0.0709082
0.0709066
0.0709046
0.0709023
0.0708995
0.070896
0.0708915
0.0708855
0.0708775
0.0708661
0.0708495
0.070824
0.0707831
0.0707123
0.0705719
0.070224
0.0691379
0.0648449
0.0313818
0.0152825
0.00757039
0.00378254
0.00189591
0.000950791
0.000476631
0.000238805
0.000119599
5.98847e-05
2.99823e-05
1.50109e-05
7.5153e-06
3.76252e-06
1.88359e-06
9.4287e-07
4.7192e-07
2.36178e-07
1.18193e-07
5.91556e-08
2.96325e-08
1.48428e-08
7.46942e-09
3.76195e-09
1.95271e-09
1.02778e-09
6.92341e-10
4.52458e-10
2.77431e-10
1.8419e-10
1.52484e-10
1.27852e-10
1.16053e-10
1.08787e-10
1.06189e-10
1.04003e-10
1.0282e-10
1.02064e-10
1.01716e-10
1.01424e-10
1.0128e-10
1.01173e-10
1.01133e-10
1.01101e-10
1.01085e-10
1.01075e-10
1.01069e-10
1.01065e-10
1.01064e-10
1.01063e-10
1.01063e-10
1.01063e-10
1.01063e-10
1.01063e-10
1.01063e-10
1.01063e-10
1.01063e-10
1.01063e-10
1.01064e-10
1.01064e-10
1.01064e-10
1.01064e-10
1.01064e-10
1.01064e-10
1.01065e-10
1.01065e-10
1.01065e-10
1.01065e-10
1.01066e-10
1.01066e-10
1.01066e-10
1.01066e-10
1.01066e-10
1.01067e-10
1.01067e-10
1.01067e-10
1.01067e-10
1.01067e-10
1.01068e-10
1.01068e-10
1.01068e-10
1.01068e-10
1.01068e-10
1.01069e-10
1.01069e-10
1.01069e-10
1.01069e-10
1.0107e-10
1.0107e-10
1.0107e-10
1.0107e-10
1.0107e-10
1.01071e-10
1.01071e-10
1.01071e-10
1.01071e-10
1.01071e-10
1.01072e-10
1.01072e-10
1.01072e-10
1.01072e-10
1.01073e-10
1.01073e-10
1.01073e-10
1.01073e-10
1.01073e-10
1.01073e-10
1.01074e-10
1.01074e-10
1.01074e-10
1.01074e-10
1.01075e-10
1.01075e-10
1.01075e-10
1.01075e-10
1.01076e-10
1.01076e-10
1.01076e-10
1.01076e-10
1.01076e-10
1.01077e-10
1.01077e-10
1.01077e-10
1.01077e-10
1.01077e-10
1.01078e-10
1.01078e-10
1.01078e-10
1.01078e-10
1.01078e-10
1.01079e-10
1.01079e-10
1.01079e-10
1.01079e-10
1.01079e-10
1.0108e-10
1.0108e-10
1.0108e-10
1.0108e-10
1.01081e-10
1.01081e-10
1.01081e-10
1.01081e-10
1.01081e-10
1.01082e-10
1.01082e-10
1.01082e-10
1.01082e-10
1.01082e-10
1.01083e-10
1.01083e-10
1.01083e-10
1.01083e-10
1.01083e-10
1.01084e-10
1.01084e-10
1.01084e-10
1.01084e-10
1.01085e-10
1.01085e-10
1.01085e-10
1.01085e-10
1.01085e-10
1.01086e-10
1.01086e-10
1.01086e-10
1.01086e-10
1.01086e-10
1.01087e-10
1.01087e-10
1.01087e-10
1.01087e-10
1.01088e-10
1.01088e-10
1.01088e-10
1.01088e-10
1.01088e-10
1.01089e-10
1.01089e-10
1.01089e-10
1.01089e-10
1.0109e-10
1.0109e-10
1.0109e-10
1.0109e-10
1.0109e-10
1.01091e-10
1.01091e-10
1.01091e-10
1.01091e-10
1.01092e-10
1.01092e-10
1.01092e-10
1.01092e-10
1.01092e-10
1.01093e-10
1.01093e-10
1.01093e-10
1.01093e-10
1.01093e-10
1.01094e-10
1.01094e-10
1.01094e-10
1.01094e-10
1.01095e-10
1.01095e-10
1.01095e-10
1.01095e-10
1.01095e-10
1.01096e-10
1.01096e-10
1.01096e-10
1.01096e-10
1.01096e-10
1.01097e-10
1.01097e-10
1.01097e-10
1.01097e-10
1.01098e-10
1.01098e-10
1.01098e-10
1.01098e-10
1.01098e-10
1.01099e-10
1.01099e-10
1.01099e-10
1.01099e-10
1.011e-10
1.011e-10
1.011e-10
1.011e-10
1.01101e-10
1.01101e-10
1.01101e-10
1.01101e-10
1.01102e-10
1.01102e-10
1.01102e-10
1.01102e-10
1.01102e-10
1.01103e-10
1.01103e-10
1.01103e-10
1.01103e-10
1.01103e-10
1.01104e-10
1.01104e-10
1.01104e-10
1.01104e-10
1.01105e-10
1.01105e-10
1.01105e-10
1.01105e-10
1.01106e-10
1.01106e-10
1.01106e-10
1.01106e-10
1.01106e-10
1.01107e-10
1.01107e-10
1.01107e-10
1.01107e-10
1.01108e-10
1.01108e-10
1.01108e-10
1.01108e-10
1.01108e-10
1.01109e-10
1.01109e-10
1.01109e-10
1.01109e-10
1.0111e-10
1.0111e-10
1.0111e-10
1.0111e-10
1.01111e-10
1.01111e-10
1.01111e-10
1.01111e-10
1.01111e-10
1.01112e-10
1.01112e-10
1.01112e-10
1.01112e-10
1.01113e-10
1.01113e-10
1.01113e-10
1.01113e-10
1.01114e-10
1.01114e-10
1.01114e-10
1.01114e-10
1.01114e-10
1.01115e-10
1.01115e-10
1.01115e-10
1.01115e-10
1.01116e-10
1.01116e-10
1.01116e-10
1.01116e-10
1.01116e-10
1.01117e-10
1.01117e-10
1.01117e-10
1.01118e-10
1.01118e-10
1.01118e-10
1.01118e-10
1.01118e-10
1.01119e-10
1.01119e-10
1.01119e-10
1.01119e-10
1.01119e-10
1.0112e-10
1.0112e-10
1.0112e-10
1.0112e-10
1.01121e-10
1.01121e-10
1.01121e-10
1.01121e-10
1.01122e-10
1.01122e-10
1.01122e-10
1.01122e-10
1.01123e-10
1.01123e-10
1.01123e-10
1.01123e-10
1.01124e-10
1.01124e-10
1.01124e-10
1.01124e-10
1.01124e-10
1.01125e-10
1.01125e-10
1.01125e-10
1.01125e-10
1.01126e-10
1.01126e-10
1.01126e-10
1.01126e-10
1.01126e-10
1.01127e-10
1.01127e-10
1.01127e-10
1.01128e-10
1.01128e-10
1.01128e-10
1.01128e-10
1.01128e-10
1.01129e-10
1.01129e-10
1.01129e-10
1.01129e-10
1.0113e-10
1.0113e-10
1.0113e-10
1.0113e-10
1.0113e-10
1.01131e-10
1.01131e-10
1.01131e-10
1.01132e-10
1.01132e-10
1.01132e-10
1.01132e-10
1.01132e-10
1.01133e-10
1.01133e-10
1.01133e-10
1.01133e-10
1.01134e-10
1.01134e-10
1.01134e-10
1.01134e-10
1.01135e-10
1.01135e-10
1.01135e-10
1.01135e-10
1.01136e-10
1.01136e-10
1.01136e-10
1.01136e-10
1.01136e-10
1.01137e-10
1.01137e-10
1.01137e-10
1.01137e-10
1.01138e-10
1.01138e-10
1.01138e-10
1.01138e-10
1.01139e-10
1.01139e-10
1.01139e-10
1.01139e-10
1.0114e-10
1.0114e-10
1.0114e-10
1.0114e-10
1.0114e-10
1.01141e-10
1.01141e-10
1.01141e-10
1.01141e-10
1.01142e-10
1.01142e-10
1.01142e-10
1.01142e-10
1.01143e-10
1.01143e-10
1.01143e-10
1.01143e-10
1.01144e-10
1.01144e-10
1.01144e-10
1.01144e-10
1.01145e-10
1.01145e-10
1.01145e-10
1.01145e-10
1.01146e-10
1.01146e-10
1.01146e-10
1.01146e-10
1.01147e-10
1.01147e-10
1.01147e-10
1.01147e-10
1.01148e-10
1.01148e-10
1.01148e-10
1.01148e-10
1.01148e-10
1.01149e-10
1.01149e-10
1.01149e-10
1.01149e-10
1.0115e-10
1.0115e-10
1.0115e-10
1.0115e-10
1.01151e-10
1.01151e-10
1.01151e-10
1.01151e-10
1.01152e-10
1.01152e-10
1.01152e-10
1.01152e-10
1.01152e-10
1.01153e-10
1.01153e-10
1.01153e-10
1.01154e-10
1.01154e-10
1.01154e-10
1.01154e-10
1.01155e-10
1.01155e-10
1.01155e-10
1.01155e-10
1.01155e-10
1.01156e-10
1.01156e-10
1.01156e-10
1.01156e-10
1.01157e-10
1.01157e-10
1.01157e-10
1.01157e-10
1.01158e-10
1.01158e-10
1.01158e-10
1.01158e-10
1.01158e-10
1.01159e-10
1.01159e-10
1.01159e-10
1.01159e-10
1.0116e-10
1.0116e-10
1.0116e-10
1.0116e-10
1.01161e-10
1.01161e-10
1.01161e-10
1.01161e-10
1.01162e-10
1.01162e-10
1.01162e-10
1.01163e-10
1.01163e-10
1.01163e-10
1.01163e-10
1.01163e-10
1.01164e-10
1.01164e-10
1.01164e-10
1.01165e-10
1.01165e-10
1.01165e-10
1.01165e-10
1.01166e-10
1.01166e-10
1.01166e-10
1.01166e-10
1.01166e-10
1.01167e-10
1.01167e-10
1.01167e-10
1.01167e-10
1.01168e-10
1.01168e-10
1.01168e-10
1.01168e-10
1.01169e-10
1.01169e-10
1.01169e-10
1.01169e-10
1.0117e-10
1.0117e-10
1.0117e-10
1.0117e-10
1.01171e-10
1.01171e-10
1.01171e-10
1.01171e-10
1.01172e-10
1.01172e-10
1.01172e-10
1.01172e-10
1.01172e-10
1.01173e-10
1.01173e-10
1.01173e-10
1.01174e-10
1.01174e-10
1.01174e-10
1.01174e-10
1.01175e-10
1.01175e-10
1.01175e-10
1.01175e-10
1.01175e-10
1.01176e-10
1.01176e-10
1.01176e-10
1.01177e-10
1.01177e-10
1.01177e-10
1.01177e-10
1.01178e-10
1.01178e-10
1.01178e-10
1.01178e-10
1.01179e-10
1.01179e-10
1.01179e-10
1.01179e-10
1.0118e-10
1.0118e-10
1.0118e-10
1.0118e-10
1.01181e-10
1.01181e-10
1.01181e-10
1.01182e-10
1.01182e-10
1.01182e-10
1.01182e-10
1.01182e-10
1.01183e-10
1.01183e-10
1.01183e-10
1.01183e-10
1.01184e-10
1.01184e-10
1.01184e-10
1.01184e-10
1.01185e-10
1.01185e-10
1.01185e-10
1.01185e-10
1.01186e-10
1.01186e-10
1.01186e-10
1.01186e-10
1.01187e-10
1.01187e-10
1.01187e-10
1.01187e-10
1.01188e-10
1.01188e-10
1.01188e-10
1.01188e-10
1.01189e-10
1.01189e-10
1.01189e-10
1.0119e-10
1.0119e-10
1.0119e-10
1.0119e-10
1.0119e-10
)
;

boundaryField
{
    fixedWall
    {
        type            zeroGradient;
    }
    outlet
    {
        type            inletOutlet;
        inletValue      uniform 0;
        value           uniform 1.0119e-10;
    }
    defaultFaces
    {
        type            empty;
    }
}


// ************************************************************************* //
