/*--------------------------------*- C++ -*----------------------------------*\
| =========                 |                                                 |
| \\      /  F ield         | OpenFOAM: The Open Source CFD Toolbox           |
|  \\    /   O peration     | Version:  2406                                  |
|   \\  /    A nd           | Website:  www.openfoam.com                      |
|    \\/     M anipulation  |                                                 |
\*---------------------------------------------------------------------------*/
FoamFile
{
    version     2.0;
    format      ascii;
    arch        "LSB;label=32;scalar=64";
    class       volScalarField;
    location    "2.5";
    object      Qdot;
}
// * * * * * * * * * * * * * * * * * * * * * * * * * * * * * * * * * * * * * //

dimensions      [1 -1 -3 0 0 0 0];

internalField   nonuniform List<scalar> 
1000
(
-2.02524e-17
-5.16725e-15
9.84597e-08
1.49061e-06
1.1596e-05
5.9072e-05
0.000221077
0.000659481
0.00165479
0.00362541
0.00712515
0.0128152
0.021416
0.0336468
0.0501608
0.0714861
0.0979792
0.129795
0.166875
0.208952
0.255575
0.306137
0.359921
0.416137
0.47397
0.532617
0.591317
0.649384
0.706217
0.761315
0.814283
0.864825
0.912743
0.957925
1.00034
1.04
1.07701
1.11147
1.14353
1.17337
1.20117
1.2271
1.25135
1.2741
1.29552
1.31577
1.335
1.35333
1.37089
1.38779
1.40412
1.41997
1.4354
1.45049
1.46529
1.47985
1.4942
1.50836
1.52231
1.53612
1.54995
1.56368
1.57735
1.59095
1.60449
1.618
1.63147
1.64492
1.65834
1.67175
1.68515
1.69855
1.71195
1.72535
1.73876
1.7522
1.76565
1.77913
1.79264
1.80619
1.81978
1.83342
1.84711
1.86087
1.87468
1.88857
1.90254
1.91658
1.93072
1.94484
1.95904
1.97351
1.98807
2.00274
2.01751
2.0324
2.04741
2.06255
2.07782
2.09322
2.10876
2.12445
2.14028
2.15627
2.1724
2.1887
2.20515
2.22178
2.23856
2.25552
2.27266
2.28997
2.30746
2.32513
2.34299
2.36104
2.37928
2.39772
2.41635
2.43519
2.45424
2.47349
2.49296
2.51264
2.53254
2.55267
2.57302
2.5936
2.61443
2.63549
2.65679
2.67835
2.70016
2.72222
2.74455
2.76715
2.79002
2.81317
2.83651
2.85996
2.88402
2.90837
2.93303
2.95799
2.98326
3.00885
3.03476
3.061
3.08758
3.11449
3.14176
3.16937
3.19735
3.22569
3.25441
3.2835
3.31298
3.34285
3.37312
3.40379
3.43488
3.46639
3.49832
3.53069
3.5634
3.59626
3.62999
3.66419
3.69886
3.73401
3.76966
3.80581
3.84247
3.87965
3.91736
3.95562
3.99442
4.03379
4.07374
4.11428
4.15541
4.19716
4.23953
4.28254
4.3262
4.37053
4.41554
4.46124
4.50766
4.5548
4.60268
4.65131
4.70072
4.75091
4.80191
4.85374
4.9064
4.95992
5.01432
5.06961
5.12581
5.18295
5.24104
5.30011
5.36017
5.42125
5.48337
5.54655
5.61082
5.67621
5.74273
5.81041
5.87929
5.94939
6.02073
6.09336
6.16729
6.24256
6.3192
6.39725
6.47674
6.55771
6.64018
6.7242
6.80981
6.89704
6.98594
7.07654
7.1689
7.26304
7.35902
7.45688
7.55668
7.65845
7.76225
7.86813
7.97615
8.08636
8.19882
8.31359
8.43073
8.55032
8.67241
8.79709
8.92442
9.05448
9.18737
9.32315
9.46194
9.60381
9.74887
9.89722
10.049
10.2042
10.3631
10.5258
10.6923
10.8628
11.0374
11.2163
11.3996
11.5875
11.78
11.9774
12.1799
12.3875
12.6005
12.819
13.0432
13.2733
13.5095
13.752
14.001
14.2568
14.5195
14.7894
15.0669
15.3521
15.6453
15.9469
16.2571
16.5764
16.905
17.2433
17.5916
17.9505
18.3193
18.6961
19.0894
19.4952
19.9139
20.3461
20.7922
21.2529
21.7288
22.2205
22.7289
23.2547
23.7987
24.3616
24.9446
25.5484
26.1742
26.823
27.4959
28.1943
28.9193
29.6725
30.4552
31.2692
32.1161
32.9977
33.916
34.8669
35.8528
36.8935
37.98
39.1152
40.3022
41.5443
42.845
44.2083
45.6381
47.1389
48.7154
50.3727
52.1162
53.9521
55.887
57.9282
60.0596
62.3047
64.7033
67.2396
69.9255
72.7734
75.7971
79.0116
82.4337
86.0818
89.9763
94.1398
98.597
103.372
108.437
113.947
119.885
126.296
133.229
140.74
148.892
157.758
167.422
177.98
189.546
202.251
216.248
231.717
248.866
267.936
289.216
313.079
339.987
370.465
405.153
444.82
490.41
543.097
604.366
676.105
760.751
861.486
982.536
1129.62
1310.66
1535.34
1818.09
2186.47
2673.7
3332.31
4259.48
5625.52
7716.19
11096.7
16952.5
28041.8
51483.3
107476
259672
737580
2.40432e+06
8.8609e+06
5.45263e+07
995129
4299.65
24.5163
0.436835
0.028845
0.00545258
0.00208179
0.0012157
0.000905271
0.000771405
0.000707654
0.000675516
0.000658942
0.000650175
0.000645564
0.000643057
0.000641746
0.000640973
0.000640562
0.000640477
0.000640294
0.000640234
0.00064027
0.000640255
0.000640182
0.000640248
0.000640181
0.00064025
0.000640186
0.000640189
0.000640258
0.000640262
0.000640265
0.000640269
0.000640272
0.000640275
0.000640278
0.000640282
0.000640219
0.000640289
0.000640291
0.000640296
0.000640299
0.000640303
0.000640305
0.000640241
0.000640312
0.000640316
0.000640253
0.000640256
0.000640326
0.000640329
0.000640265
0.000640335
0.00064034
0.000640343
0.000640346
0.000640349
0.000640353
0.000640356
0.000640359
0.000640295
0.000640365
0.000640369
0.000640373
0.000640377
0.00064038
0.000640383
0.000640387
0.000640391
0.000640394
0.000640398
0.0006404
0.000640404
0.000640406
0.00064041
0.000640347
0.000640417
0.000640421
0.000640425
0.000640428
0.000640431
0.000640367
0.000640437
0.000640375
0.000640378
0.000640383
0.000640452
0.000640455
0.000640459
0.000640462
0.000640398
0.000640401
0.000640472
0.000640475
0.000640478
0.000640414
0.000640417
0.00064042
0.000640492
0.000640496
0.000640433
0.000640503
0.000640439
0.000640509
0.000640445
0.000640514
0.000640517
0.000640521
0.000640526
0.000640529
0.000640467
0.000640537
0.000640541
0.000640476
0.000640548
0.000640551
0.000640554
0.00064049
0.000640493
0.000640564
0.0006405
0.00064057
0.000640574
0.000640511
0.000640514
0.000640517
0.000640521
0.000640457
0.00064046
0.000640463
0.000640534
0.000640537
0.000640541
0.000640477
0.00064048
0.000640551
0.000640554
0.000640558
0.00064056
0.000640496
0.000640501
0.000640504
0.000640575
0.000640511
0.000640514
0.000640584
0.000640588
0.000640592
0.000640594
0.000640598
0.0006406
0.000640605
0.000640608
0.000640612
0.000640615
0.000640618
0.000640622
0.000640625
0.000640561
0.000640632
0.000640635
0.000640639
0.000640643
0.000640646
0.000640649
0.000640653
0.000640656
0.000640592
0.000640664
0.000640667
0.000640604
0.000640674
0.00064061
0.00064068
0.000640683
0.000640619
0.00064069
0.000640694
0.000640697
0.000640702
0.000640637
0.000640708
0.000640644
0.000640714
0.000640718
0.000640655
0.000640725
0.000640729
0.000640664
0.000640736
0.000640671
0.000640741
0.000640745
0.000640681
0.000640752
0.000640755
0.000640758
0.000640762
0.000640766
0.000640702
0.000640772
0.000640776
0.000640779
0.000640783
0.000640786
0.000640789
0.000640792
0.000640796
0.000640733
0.000640802
0.000640806
0.00064081
0.000640814
0.000640817
0.000640819
0.000640755
0.000640827
0.000640829
0.000640833
0.000640769
0.000640773
0.000640844
0.000640847
0.00064085
0.000640787
0.000640857
0.000640862
0.000640866
0.000640802
0.000640806
0.000640878
0.000640881
0.000640885
0.000640822
0.000640891
0.000640895
0.000640831
0.000640834
0.000640904
0.000640841
0.000640911
0.000640914
0.000640917
0.000640921
0.000640925
0.000640928
0.000640931
0.000640934
0.000640938
0.000640874
0.000640878
0.000640949
0.000640952
0.000640956
0.000640959
0.000640963
0.000640966
0.00064097
0.000640973
0.000640976
0.000640979
0.000640983
0.000640919
0.000640989
0.000640925
0.000640997
0.000641
0.000641004
0.000641007
0.000641011
0.000641015
0.000640952
0.000641023
0.000641026
0.000640961
0.000641033
0.000641036
0.00064104
0.000641043
0.000641046
0.00064105
0.000641052
0.000641057
0.000641061
0.000641064
0.000641067
0.00064107
0.000641074
0.000641077
0.00064108
0.000641084
0.000641021
0.000641092
0.000641028
0.000641097
0.000641034
0.000641106
0.000641109
0.000641112
0.000641115
0.000641119
0.000641123
0.000641127
0.000641132
0.000641135
0.000641138
0.000641142
0.000641145
0.000641081
0.000641151
0.000641154
0.000641158
0.000641161
0.000641164
0.000641101
0.000641171
0.000641174
0.00064111
0.000641182
0.000641185
0.000641189
0.000641192
0.000641129
0.000641134
0.000641137
0.00064114
0.000641211
0.000641214
0.000641152
0.000641221
0.000641225
0.000641229
0.000641232
0.000641234
0.000641171
0.000641243
0.000641247
0.000641249
0.000641253
0.000641189
0.000641192
0.000641263
0.000641266
0.000641269
0.000641206
0.000641211
0.000641213
0.000641218
0.000641289
0.000641224
0.000641228
0.000641232
0.000641235
0.000641239
0.000641241
0.000641245
0.000641182
0.000641253
0.000641189
0.000641259
0.000641195
0.0006412
0.00064127
0.000641274
0.00064121
0.00064128
0.000641284
0.000641288
0.000641292
0.000641295
0.000641298
0.000641301
0.000641239
0.000641242
0.000641246
0.000641316
0.000641319
0.000641323
0.000641326
0.000641262
0.000641334
0.000641337
0.000641341
0.000641343
0.000641347
0.000641285
0.000641355
0.000641358
0.000641361
0.000641298
0.000641302
0.000641372
0.000641309
0.000641313
0.000641383
0.000641387
0.00064139
0.000641326
0.00064133
0.0006414
0.000641337
0.000641407
0.000641344
0.000641414
0.000641418
0.000641421
0.000641425
0.000641428
0.000641432
0.000641436
0.000641439
0.000641442
0.00064138
0.00064145
0.000641453
0.000641457
0.000641459
0.000641396
0.000641399
0.00064147
0.000641474
0.000641479
0.000641482
0.000641418
0.000641422
0.000641425
0.000641496
0.0006415
0.000641504
0.00064144
0.000641511
0.000641514
0.000641451
0.000641454
0.000641524
0.000641528
0.000641465
0.000641468
0.000641538
0.000641542
0.000641477
0.000641482
0.000641552
0.000641489
0.000641492
0.000641496
0.000641566
0.000641569
0.000641573
0.000641511
0.000641514
0.000641584
0.000641587
0.000641524
0.000641594
0.0006416
0.000641603
0.000641606
0.00064161
0.000641613
0.000641551
0.000641621
0.000641624
0.000641628
0.000641564
0.000641567
0.000641639
0.000641641
0.000641644
0.000641649
0.000641652
0.000641656
0.000641659
0.000641595
0.000641598
0.000641669
0.000641605
0.000641609
0.00064168
0.000641683
0.000641619
0.000641689
0.000641693
0.000641697
0.000641633
0.000641704
0.000641642
0.000641645
0.000641715
0.000641652
0.000641721
0.00064166
0.00064173
0.000641734
0.00064167
0.000641741
0.000641744
0.000641682
0.000641753
0.000641757
0.000641761
0.000641763
0.000641768
0.000641704
0.000641774
0.000641779
0.000641714
0.000641784
0.000641721
0.000641792
0.000641728
0.000641798
0.000641802
0.000641806
0.000641742
0.000641813
0.000641816
0.000641819
0.000641756
0.000641826
0.00064183
0.000641834
0.000641769
0.00064184
0.000641776
0.000641847
0.000641785
0.000641855
0.000641858
0.000641861
0.000641865
0.000641802
0.000641805
0.000641809
0.000641879
0.000641884
0.000641887
0.000641891
0.000641827
0.000641831
0.0006419
0.000641904
0.000641842
0.000641845
0.000641848
0.000641918
0.000641922
0.00064186
0.00064193
0.000641934
0.000641937
0.000641941
0.000641945
0.00064195
0.000641886
0.000641956
0.000641961
0.000641964
0.0006419
0.000641904
0.000641907
0.000641978
0.000641982
0.000641986
0.000641989
0.000641993
0.000641998
0.000642001
0.000641938
0.000641942
0.000641879
0.000641949
0.000641952
0.000641955
0.000641958
0.000641962
0.000641965
0.000641902
0.000641972
0.000641909
0.00064198
0.000641916
0.000641919
0.000641989
0.000641926
0.000641931
0.000642001
0.000642005
0.000642008
0.000641945
0.000642015
0.000641952
0.000641955
0.000642026
0.000642029
0.000642033
0.000641969
0.000642041
0.000641978
0.000642048
0.000642052
0.000642055
0.000642059
0.000641995
0.000641999
0.00064207
)
;

boundaryField
{
    fixedWall
    {
        type            calculated;
        value           uniform 0;
    }
    outlet
    {
        type            calculated;
        value           uniform 0;
    }
    defaultFaces
    {
        type            empty;
    }
}


// ************************************************************************* //
