/*--------------------------------*- C++ -*----------------------------------*\
| =========                 |                                                 |
| \\      /  F ield         | OpenFOAM: The Open Source CFD Toolbox           |
|  \\    /   O peration     | Version:  2406                                  |
|   \\  /    A nd           | Website:  www.openfoam.com                      |
|    \\/     M anipulation  |                                                 |
\*---------------------------------------------------------------------------*/
FoamFile
{
    version     2.0;
    format      ascii;
    arch        "LSB;label=32;scalar=64";
    class       volScalarField;
    location    "3.2";
    object      CO2;
}
// * * * * * * * * * * * * * * * * * * * * * * * * * * * * * * * * * * * * * //

dimensions      [0 0 0 0 0 0 0];

internalField   nonuniform List<scalar> 
1000
(
0.0709257
0.0709257
0.0709257
0.0709257
0.0709257
0.0709258
0.0709258
0.0709258
0.0709258
0.0709258
0.0709258
0.0709258
0.0709258
0.0709258
0.0709259
0.0709259
0.0709259
0.0709259
0.0709259
0.0709259
0.070926
0.070926
0.070926
0.070926
0.070926
0.070926
0.0709261
0.0709261
0.0709261
0.0709261
0.0709261
0.0709261
0.0709261
0.0709262
0.0709262
0.0709262
0.0709262
0.0709262
0.0709262
0.0709262
0.0709262
0.0709263
0.0709263
0.0709263
0.0709263
0.0709263
0.0709263
0.0709263
0.0709263
0.0709263
0.0709263
0.0709263
0.0709263
0.0709263
0.0709263
0.0709263
0.0709263
0.0709263
0.0709264
0.0709264
0.0709264
0.0709264
0.0709264
0.0709264
0.0709264
0.0709264
0.0709264
0.0709264
0.0709264
0.0709264
0.0709264
0.0709264
0.0709264
0.0709264
0.0709264
0.0709264
0.0709264
0.0709264
0.0709264
0.0709264
0.0709264
0.0709264
0.0709264
0.0709264
0.0709264
0.0709264
0.0709264
0.0709264
0.0709264
0.0709264
0.0709264
0.0709264
0.0709264
0.0709264
0.0709264
0.0709263
0.0709263
0.0709263
0.0709263
0.0709263
0.0709263
0.0709263
0.0709263
0.0709263
0.0709263
0.0709263
0.0709263
0.0709263
0.0709263
0.0709263
0.0709263
0.0709263
0.0709263
0.0709263
0.0709263
0.0709263
0.0709263
0.0709263
0.0709263
0.0709263
0.0709263
0.0709263
0.0709263
0.0709263
0.0709263
0.0709263
0.0709263
0.0709263
0.0709263
0.0709263
0.0709263
0.0709263
0.0709263
0.0709263
0.0709263
0.0709263
0.0709263
0.0709263
0.0709263
0.0709263
0.0709263
0.0709263
0.0709263
0.0709263
0.0709263
0.0709263
0.0709263
0.0709263
0.0709263
0.0709263
0.0709263
0.0709263
0.0709263
0.0709263
0.0709263
0.0709263
0.0709263
0.0709263
0.0709263
0.0709263
0.0709263
0.0709262
0.0709262
0.0709262
0.0709262
0.0709262
0.0709262
0.0709262
0.0709262
0.0709262
0.0709262
0.0709262
0.0709262
0.0709262
0.0709262
0.0709262
0.0709262
0.0709262
0.0709262
0.0709262
0.0709262
0.0709262
0.0709262
0.0709262
0.0709262
0.0709262
0.0709262
0.0709262
0.0709262
0.0709262
0.0709262
0.0709262
0.0709262
0.0709262
0.0709262
0.0709262
0.0709262
0.0709262
0.0709262
0.0709262
0.0709262
0.0709262
0.0709262
0.0709262
0.0709262
0.0709262
0.0709262
0.0709262
0.0709262
0.0709261
0.0709261
0.0709261
0.0709261
0.0709261
0.0709261
0.0709261
0.0709261
0.0709261
0.0709261
0.0709261
0.0709261
0.0709261
0.0709261
0.0709261
0.0709261
0.0709261
0.0709261
0.0709261
0.0709261
0.0709261
0.0709261
0.0709261
0.0709261
0.0709261
0.0709261
0.0709261
0.0709261
0.0709261
0.0709261
0.0709261
0.0709261
0.0709261
0.0709261
0.0709261
0.070926
0.070926
0.070926
0.070926
0.070926
0.070926
0.070926
0.070926
0.070926
0.070926
0.070926
0.070926
0.070926
0.070926
0.070926
0.070926
0.070926
0.070926
0.070926
0.070926
0.070926
0.070926
0.070926
0.070926
0.070926
0.070926
0.070926
0.070926
0.0709259
0.0709259
0.0709259
0.0709259
0.0709259
0.0709259
0.0709259
0.0709259
0.0709259
0.0709259
0.0709259
0.0709259
0.0709259
0.0709259
0.0709259
0.0709259
0.0709259
0.0709259
0.0709259
0.0709259
0.0709259
0.0709259
0.0709259
0.0709258
0.0709258
0.0709258
0.0709258
0.0709258
0.0709258
0.0709258
0.0709258
0.0709258
0.0709258
0.0709258
0.0709258
0.0709258
0.0709258
0.0709258
0.0709258
0.0709258
0.0709258
0.0709257
0.0709257
0.0709257
0.0709257
0.0709257
0.0709257
0.0709257
0.0709257
0.0709257
0.0709257
0.0709257
0.0709257
0.0709257
0.0709257
0.0709257
0.0709257
0.0709256
0.0709256
0.0709256
0.0709256
0.0709256
0.0709256
0.0709256
0.0709256
0.0709256
0.0709256
0.0709256
0.0709256
0.0709256
0.0709255
0.0709255
0.0709255
0.0709255
0.0709255
0.0709255
0.0709255
0.0709255
0.0709255
0.0709255
0.0709255
0.0709254
0.0709254
0.0709254
0.0709254
0.0709254
0.0709254
0.0709254
0.0709254
0.0709254
0.0709253
0.0709253
0.0709253
0.0709253
0.0709253
0.0709253
0.0709253
0.0709253
0.0709253
0.0709252
0.0709252
0.0709252
0.0709252
0.0709252
0.0709252
0.0709252
0.0709251
0.0709251
0.0709251
0.0709251
0.0709251
0.0709251
0.0709251
0.070925
0.070925
0.070925
0.070925
0.070925
0.070925
0.0709249
0.0709249
0.0709249
0.0709249
0.0709249
0.0709248
0.0709248
0.0709248
0.0709248
0.0709248
0.0709247
0.0709247
0.0709247
0.0709247
0.0709247
0.0709246
0.0709246
0.0709246
0.0709246
0.0709245
0.0709245
0.0709245
0.0709244
0.0709244
0.0709244
0.0709244
0.0709243
0.0709243
0.0709243
0.0709242
0.0709242
0.0709242
0.0709241
0.0709241
0.0709241
0.070924
0.070924
0.0709239
0.0709239
0.0709239
0.0709238
0.0709238
0.0709237
0.0709237
0.0709236
0.0709236
0.0709235
0.0709235
0.0709234
0.0709233
0.0709233
0.0709232
0.0709231
0.0709231
0.070923
0.0709229
0.0709229
0.0709228
0.0709227
0.0709226
0.0709225
0.0709224
0.0709223
0.0709222
0.0709221
0.070922
0.0709219
0.0709218
0.0709217
0.0709216
0.0709214
0.0709213
0.0709211
0.070921
0.0709208
0.0709206
0.0709204
0.0709202
0.07092
0.0709198
0.0709196
0.0709193
0.070919
0.0709187
0.0709184
0.070918
0.0709177
0.0709173
0.0709168
0.0709163
0.0709158
0.0709152
0.0709146
0.0709138
0.070913
0.0709121
0.0709111
0.0709099
0.0709086
0.070907
0.0709052
0.0709029
0.0709003
0.070897
0.0708928
0.0708875
0.0708805
0.0708709
0.0708567
0.0708346
0.070797
0.0707263
0.0705753
0.0701875
0.0689672
0.0644054
0.0368577
0.0184651
0.00920293
0.00458076
0.00227901
0.00113358
0.000563775
0.000280385
0.00013945
6.93589e-05
3.44985e-05
1.71598e-05
8.53576e-06
4.24623e-06
2.11258e-06
1.05122e-06
5.23211e-07
2.60497e-07
1.29758e-07
6.46866e-08
3.23014e-08
1.61382e-08
8.11892e-09
4.12467e-09
2.08966e-09
1.20917e-09
8.21805e-10
5.01073e-10
3.2164e-10
2.21869e-10
1.84421e-10
1.591e-10
1.47161e-10
1.4064e-10
1.35663e-10
1.32777e-10
1.31394e-10
1.30348e-10
1.29951e-10
1.29737e-10
1.29536e-10
1.29414e-10
1.29375e-10
1.29346e-10
1.29329e-10
1.2932e-10
1.29315e-10
1.29313e-10
1.29312e-10
1.29311e-10
1.29311e-10
1.29311e-10
1.29311e-10
1.29311e-10
1.29311e-10
1.29312e-10
1.29312e-10
1.29312e-10
1.29313e-10
1.29313e-10
1.29313e-10
1.29314e-10
1.29314e-10
1.29315e-10
1.29315e-10
1.29315e-10
1.29316e-10
1.29316e-10
1.29316e-10
1.29317e-10
1.29317e-10
1.29318e-10
1.29318e-10
1.29319e-10
1.29319e-10
1.29319e-10
1.2932e-10
1.2932e-10
1.2932e-10
1.29321e-10
1.29321e-10
1.29321e-10
1.29322e-10
1.29322e-10
1.29323e-10
1.29323e-10
1.29323e-10
1.29324e-10
1.29324e-10
1.29325e-10
1.29325e-10
1.29325e-10
1.29325e-10
1.29326e-10
1.29326e-10
1.29327e-10
1.29327e-10
1.29327e-10
1.29328e-10
1.29328e-10
1.29329e-10
1.29329e-10
1.29329e-10
1.2933e-10
1.2933e-10
1.2933e-10
1.29331e-10
1.29331e-10
1.29331e-10
1.29332e-10
1.29332e-10
1.29333e-10
1.29333e-10
1.29333e-10
1.29334e-10
1.29334e-10
1.29335e-10
1.29335e-10
1.29335e-10
1.29336e-10
1.29336e-10
1.29336e-10
1.29337e-10
1.29337e-10
1.29337e-10
1.29338e-10
1.29338e-10
1.29338e-10
1.29339e-10
1.29339e-10
1.2934e-10
1.2934e-10
1.29341e-10
1.29341e-10
1.29342e-10
1.29342e-10
1.29342e-10
1.29343e-10
1.29343e-10
1.29343e-10
1.29344e-10
1.29344e-10
1.29344e-10
1.29345e-10
1.29345e-10
1.29346e-10
1.29346e-10
1.29346e-10
1.29347e-10
1.29347e-10
1.29347e-10
1.29348e-10
1.29348e-10
1.29349e-10
1.29349e-10
1.29349e-10
1.2935e-10
1.2935e-10
1.2935e-10
1.29351e-10
1.29351e-10
1.29352e-10
1.29352e-10
1.29352e-10
1.29353e-10
1.29353e-10
1.29354e-10
1.29354e-10
1.29354e-10
1.29355e-10
1.29355e-10
1.29355e-10
1.29356e-10
1.29356e-10
1.29356e-10
1.29357e-10
1.29357e-10
1.29358e-10
1.29358e-10
1.29358e-10
1.29359e-10
1.29359e-10
1.29359e-10
1.2936e-10
1.2936e-10
1.29361e-10
1.29361e-10
1.29361e-10
1.29362e-10
1.29362e-10
1.29363e-10
1.29363e-10
1.29364e-10
1.29364e-10
1.29365e-10
1.29365e-10
1.29365e-10
1.29366e-10
1.29366e-10
1.29367e-10
1.29367e-10
1.29367e-10
1.29368e-10
1.29368e-10
1.29368e-10
1.29369e-10
1.29369e-10
1.2937e-10
1.2937e-10
1.2937e-10
1.29371e-10
1.29371e-10
1.29372e-10
1.29372e-10
1.29372e-10
1.29373e-10
1.29373e-10
1.29373e-10
1.29374e-10
1.29374e-10
1.29375e-10
1.29375e-10
1.29375e-10
1.29376e-10
1.29376e-10
1.29376e-10
1.29377e-10
1.29377e-10
1.29378e-10
1.29378e-10
1.29379e-10
1.29379e-10
1.29379e-10
1.2938e-10
1.2938e-10
1.29381e-10
1.29381e-10
1.29381e-10
1.29382e-10
1.29382e-10
1.29383e-10
1.29383e-10
1.29383e-10
1.29384e-10
1.29384e-10
1.29385e-10
1.29385e-10
1.29385e-10
1.29386e-10
1.29386e-10
1.29387e-10
1.29387e-10
1.29387e-10
1.29388e-10
1.29388e-10
1.29388e-10
1.29389e-10
1.29389e-10
1.2939e-10
1.2939e-10
1.29391e-10
1.29391e-10
1.29391e-10
1.29392e-10
1.29392e-10
1.29393e-10
1.29393e-10
1.29393e-10
1.29394e-10
1.29394e-10
1.29394e-10
1.29395e-10
1.29395e-10
1.29396e-10
1.29396e-10
1.29396e-10
1.29397e-10
1.29397e-10
1.29398e-10
1.29398e-10
1.29399e-10
1.29399e-10
1.29399e-10
1.294e-10
1.294e-10
1.29401e-10
1.29401e-10
1.29401e-10
1.29402e-10
1.29402e-10
1.29403e-10
1.29403e-10
1.29403e-10
1.29404e-10
1.29404e-10
1.29405e-10
1.29405e-10
1.29405e-10
1.29406e-10
1.29406e-10
1.29406e-10
1.29407e-10
1.29407e-10
1.29408e-10
1.29408e-10
1.29409e-10
1.29409e-10
1.29409e-10
1.2941e-10
1.2941e-10
1.2941e-10
1.29411e-10
1.29411e-10
1.29412e-10
1.29412e-10
1.29413e-10
1.29413e-10
1.29413e-10
1.29414e-10
1.29414e-10
1.29414e-10
1.29415e-10
1.29415e-10
1.29416e-10
1.29416e-10
1.29416e-10
1.29417e-10
1.29417e-10
1.29418e-10
1.29418e-10
1.29419e-10
1.29419e-10
1.29419e-10
1.2942e-10
1.2942e-10
1.29421e-10
1.29421e-10
1.29422e-10
1.29422e-10
1.29422e-10
1.29423e-10
1.29423e-10
1.29424e-10
1.29424e-10
1.29424e-10
1.29425e-10
1.29425e-10
1.29426e-10
1.29426e-10
1.29426e-10
1.29427e-10
1.29427e-10
1.29428e-10
1.29428e-10
1.29428e-10
1.29429e-10
1.29429e-10
1.2943e-10
1.2943e-10
1.29431e-10
1.29431e-10
1.29431e-10
1.29432e-10
1.29432e-10
1.29433e-10
1.29433e-10
1.29433e-10
1.29434e-10
1.29434e-10
1.29435e-10
1.29435e-10
1.29435e-10
1.29436e-10
1.29436e-10
1.29436e-10
1.29437e-10
1.29437e-10
1.29438e-10
1.29438e-10
1.29439e-10
1.29439e-10
1.29439e-10
1.2944e-10
1.2944e-10
1.29441e-10
1.29441e-10
1.29441e-10
1.29442e-10
1.29442e-10
1.29443e-10
1.29443e-10
1.29443e-10
1.29444e-10
1.29444e-10
1.29445e-10
1.29445e-10
1.29446e-10
1.29446e-10
1.29446e-10
1.29447e-10
1.29447e-10
1.29448e-10
1.29448e-10
1.29449e-10
1.29449e-10
1.29449e-10
1.2945e-10
1.2945e-10
1.2945e-10
1.29451e-10
1.29451e-10
1.29452e-10
1.29452e-10
1.29453e-10
1.29453e-10
1.29453e-10
1.29454e-10
1.29454e-10
1.29454e-10
1.29455e-10
1.29455e-10
1.29456e-10
1.29456e-10
1.29457e-10
1.29457e-10
1.29458e-10
1.29458e-10
1.29458e-10
1.29459e-10
1.29459e-10
1.29459e-10
1.2946e-10
1.2946e-10
1.29461e-10
1.29461e-10
1.29462e-10
1.29462e-10
1.29462e-10
1.29463e-10
1.29463e-10
1.29463e-10
1.29464e-10
1.29464e-10
1.29465e-10
1.29465e-10
1.29466e-10
1.29466e-10
1.29466e-10
1.29467e-10
1.29467e-10
1.29467e-10
1.29468e-10
1.29468e-10
1.29469e-10
1.29469e-10
1.2947e-10
1.2947e-10
1.29471e-10
1.29471e-10
1.29472e-10
1.29472e-10
1.29472e-10
1.29473e-10
1.29473e-10
1.29474e-10
1.29474e-10
1.29474e-10
1.29475e-10
1.29475e-10
1.29476e-10
1.29476e-10
1.29477e-10
1.29477e-10
1.29478e-10
1.29478e-10
1.29478e-10
1.29479e-10
1.29479e-10
1.29479e-10
1.2948e-10
1.2948e-10
1.29481e-10
1.29481e-10
1.29482e-10
1.29482e-10
1.29482e-10
1.29483e-10
1.29483e-10
1.29484e-10
1.29484e-10
1.29484e-10
1.29485e-10
1.29485e-10
)
;

boundaryField
{
    fixedWall
    {
        type            zeroGradient;
    }
    outlet
    {
        type            inletOutlet;
        inletValue      uniform 0;
        value           uniform 1.29485e-10;
    }
    defaultFaces
    {
        type            empty;
    }
}


// ************************************************************************* //
