/*--------------------------------*- C++ -*----------------------------------*\
| =========                 |                                                 |
| \\      /  F ield         | OpenFOAM: The Open Source CFD Toolbox           |
|  \\    /   O peration     | Version:  2406                                  |
|   \\  /    A nd           | Website:  www.openfoam.com                      |
|    \\/     M anipulation  |                                                 |
\*---------------------------------------------------------------------------*/
FoamFile
{
    version     2.0;
    format      ascii;
    arch        "LSB;label=32;scalar=64";
    class       volVectorField;
    location    "7.4";
    object      U;
}
// * * * * * * * * * * * * * * * * * * * * * * * * * * * * * * * * * * * * * //

dimensions      [0 1 -1 0 0 0 0];

internalField   nonuniform List<vector> 
1000
(
(-1.62702e-06 0 0)
(-7.49581e-06 0 0)
(-1.87922e-05 0 0)
(-3.41161e-05 0 0)
(-5.24287e-05 0 0)
(-7.3121e-05 0 0)
(-9.57778e-05 0 0)
(-0.000120069 0 0)
(-0.000145721 0 0)
(-0.000172509 0 0)
(-0.000200247 0 0)
(-0.000228776 0 0)
(-0.000257964 0 0)
(-0.000287694 0 0)
(-0.000317869 0 0)
(-0.000348402 0 0)
(-0.000379214 0 0)
(-0.00041024 0 0)
(-0.00044142 0 0)
(-0.000472697 0 0)
(-0.000504026 0 0)
(-0.000535361 0 0)
(-0.000566664 0 0)
(-0.000597896 0 0)
(-0.000629028 0 0)
(-0.000660028 0 0)
(-0.000690867 0 0)
(-0.000721523 0 0)
(-0.00075197 0 0)
(-0.000782189 0 0)
(-0.000812159 0 0)
(-0.000841862 0 0)
(-0.000871283 0 0)
(-0.000900404 0 0)
(-0.000929214 0 0)
(-0.000957697 0 0)
(-0.000985844 0 0)
(-0.00101364 0 0)
(-0.00104108 0 0)
(-0.00106816 0 0)
(-0.00109486 0 0)
(-0.00112117 0 0)
(-0.0011471 0 0)
(-0.00117263 0 0)
(-0.00119777 0 0)
(-0.0012225 0 0)
(-0.00124682 0 0)
(-0.00127072 0 0)
(-0.00129422 0 0)
(-0.00131729 0 0)
(-0.00133995 0 0)
(-0.00136218 0 0)
(-0.00138399 0 0)
(-0.00140539 0 0)
(-0.00142636 0 0)
(-0.0014469 0 0)
(-0.00146703 0 0)
(-0.00148674 0 0)
(-0.00150603 0 0)
(-0.0015249 0 0)
(-0.00154335 0 0)
(-0.0015614 0 0)
(-0.00157903 0 0)
(-0.00159626 0 0)
(-0.00161308 0 0)
(-0.0016295 0 0)
(-0.00164553 0 0)
(-0.00166116 0 0)
(-0.0016764 0 0)
(-0.00169126 0 0)
(-0.00170574 0 0)
(-0.00171985 0 0)
(-0.00173358 0 0)
(-0.00174694 0 0)
(-0.00175994 0 0)
(-0.00177259 0 0)
(-0.00178489 0 0)
(-0.00179684 0 0)
(-0.00180845 0 0)
(-0.00181973 0 0)
(-0.00183068 0 0)
(-0.0018413 0 0)
(-0.00185161 0 0)
(-0.0018616 0 0)
(-0.00187129 0 0)
(-0.00188068 0 0)
(-0.00188978 0 0)
(-0.00189859 0 0)
(-0.00190712 0 0)
(-0.00191537 0 0)
(-0.00192335 0 0)
(-0.00193107 0 0)
(-0.00193852 0 0)
(-0.00194573 0 0)
(-0.00195269 0 0)
(-0.00195941 0 0)
(-0.0019659 0 0)
(-0.00197216 0 0)
(-0.00197819 0 0)
(-0.00198401 0 0)
(-0.00198962 0 0)
(-0.00199502 0 0)
(-0.00200022 0 0)
(-0.00200523 0 0)
(-0.00201005 0 0)
(-0.00201469 0 0)
(-0.00201914 0 0)
(-0.00202343 0 0)
(-0.00202754 0 0)
(-0.0020315 0 0)
(-0.00203529 0 0)
(-0.00203894 0 0)
(-0.00204243 0 0)
(-0.00204578 0 0)
(-0.002049 0 0)
(-0.00205207 0 0)
(-0.00205502 0 0)
(-0.00205785 0 0)
(-0.00206055 0 0)
(-0.00206314 0 0)
(-0.00206562 0 0)
(-0.00206798 0 0)
(-0.00207024 0 0)
(-0.0020724 0 0)
(-0.00207446 0 0)
(-0.00207643 0 0)
(-0.0020783 0 0)
(-0.00208008 0 0)
(-0.00208178 0 0)
(-0.00208341 0 0)
(-0.00208496 0 0)
(-0.00208645 0 0)
(-0.00208786 0 0)
(-0.0020892 0 0)
(-0.00209048 0 0)
(-0.00209169 0 0)
(-0.00209284 0 0)
(-0.00209394 0 0)
(-0.00209498 0 0)
(-0.00209597 0 0)
(-0.00209691 0 0)
(-0.0020978 0 0)
(-0.00209864 0 0)
(-0.00209944 0 0)
(-0.0021002 0 0)
(-0.00210092 0 0)
(-0.0021016 0 0)
(-0.00210224 0 0)
(-0.00210285 0 0)
(-0.00210343 0 0)
(-0.00210397 0 0)
(-0.00210449 0 0)
(-0.00210497 0 0)
(-0.00210543 0 0)
(-0.00210587 0 0)
(-0.00210628 0 0)
(-0.00210666 0 0)
(-0.00210703 0 0)
(-0.00210737 0 0)
(-0.00210769 0 0)
(-0.002108 0 0)
(-0.00210828 0 0)
(-0.00210855 0 0)
(-0.00210881 0 0)
(-0.00210905 0 0)
(-0.00210927 0 0)
(-0.00210948 0 0)
(-0.00210968 0 0)
(-0.00210987 0 0)
(-0.00211004 0 0)
(-0.00211021 0 0)
(-0.00211036 0 0)
(-0.00211051 0 0)
(-0.00211064 0 0)
(-0.00211077 0 0)
(-0.00211089 0 0)
(-0.002111 0 0)
(-0.0021111 0 0)
(-0.0021112 0 0)
(-0.00211129 0 0)
(-0.00211137 0 0)
(-0.00211145 0 0)
(-0.00211153 0 0)
(-0.0021116 0 0)
(-0.00211166 0 0)
(-0.00211172 0 0)
(-0.00211178 0 0)
(-0.00211183 0 0)
(-0.00211188 0 0)
(-0.00211193 0 0)
(-0.00211197 0 0)
(-0.00211201 0 0)
(-0.00211204 0 0)
(-0.00211208 0 0)
(-0.00211211 0 0)
(-0.00211214 0 0)
(-0.00211217 0 0)
(-0.00211219 0 0)
(-0.00211221 0 0)
(-0.00211224 0 0)
(-0.00211226 0 0)
(-0.00211228 0 0)
(-0.00211229 0 0)
(-0.00211231 0 0)
(-0.00211232 0 0)
(-0.00211234 0 0)
(-0.00211235 0 0)
(-0.00211236 0 0)
(-0.00211237 0 0)
(-0.00211238 0 0)
(-0.00211239 0 0)
(-0.0021124 0 0)
(-0.0021124 0 0)
(-0.00211241 0 0)
(-0.00211242 0 0)
(-0.00211242 0 0)
(-0.00211243 0 0)
(-0.00211243 0 0)
(-0.00211243 0 0)
(-0.00211244 0 0)
(-0.00211244 0 0)
(-0.00211244 0 0)
(-0.00211244 0 0)
(-0.00211244 0 0)
(-0.00211245 0 0)
(-0.00211244 0 0)
(-0.00211245 0 0)
(-0.00211245 0 0)
(-0.00211244 0 0)
(-0.00211245 0 0)
(-0.00211244 0 0)
(-0.00211245 0 0)
(-0.00211245 0 0)
(-0.00211244 0 0)
(-0.00211244 0 0)
(-0.00211244 0 0)
(-0.00211244 0 0)
(-0.00211244 0 0)
(-0.00211244 0 0)
(-0.00211243 0 0)
(-0.00211243 0 0)
(-0.00211243 0 0)
(-0.00211242 0 0)
(-0.00211243 0 0)
(-0.00211242 0 0)
(-0.00211243 0 0)
(-0.00211241 0 0)
(-0.00211242 0 0)
(-0.00211241 0 0)
(-0.00211241 0 0)
(-0.00211241 0 0)
(-0.0021124 0 0)
(-0.0021124 0 0)
(-0.00211239 0 0)
(-0.0021124 0 0)
(-0.00211238 0 0)
(-0.00211239 0 0)
(-0.00211238 0 0)
(-0.00211238 0 0)
(-0.00211238 0 0)
(-0.00211236 0 0)
(-0.00211237 0 0)
(-0.00211236 0 0)
(-0.00211235 0 0)
(-0.00211235 0 0)
(-0.00211235 0 0)
(-0.00211234 0 0)
(-0.00211234 0 0)
(-0.00211233 0 0)
(-0.00211233 0 0)
(-0.00211233 0 0)
(-0.00211232 0 0)
(-0.00211232 0 0)
(-0.00211231 0 0)
(-0.00211231 0 0)
(-0.00211231 0 0)
(-0.0021123 0 0)
(-0.0021123 0 0)
(-0.00211229 0 0)
(-0.00211229 0 0)
(-0.00211228 0 0)
(-0.00211228 0 0)
(-0.00211227 0 0)
(-0.00211227 0 0)
(-0.00211227 0 0)
(-0.00211226 0 0)
(-0.00211226 0 0)
(-0.00211225 0 0)
(-0.00211225 0 0)
(-0.00211224 0 0)
(-0.00211224 0 0)
(-0.00211223 0 0)
(-0.00211223 0 0)
(-0.00211223 0 0)
(-0.00211222 0 0)
(-0.00211222 0 0)
(-0.00211221 0 0)
(-0.00211221 0 0)
(-0.00211221 0 0)
(-0.0021122 0 0)
(-0.0021122 0 0)
(-0.0021122 0 0)
(-0.00211219 0 0)
(-0.00211218 0 0)
(-0.00211219 0 0)
(-0.00211218 0 0)
(-0.00211217 0 0)
(-0.00211218 0 0)
(-0.00211216 0 0)
(-0.00211216 0 0)
(-0.00211216 0 0)
(-0.00211215 0 0)
(-0.00211215 0 0)
(-0.00211215 0 0)
(-0.00211214 0 0)
(-0.00211215 0 0)
(-0.00211213 0 0)
(-0.00211214 0 0)
(-0.00211213 0 0)
(-0.00211213 0 0)
(-0.00211213 0 0)
(-0.00211212 0 0)
(-0.00211212 0 0)
(-0.00211212 0 0)
(-0.00211212 0 0)
(-0.00211211 0 0)
(-0.00211212 0 0)
(-0.0021121 0 0)
(-0.00211211 0 0)
(-0.0021121 0 0)
(-0.0021121 0 0)
(-0.00211211 0 0)
(-0.00211209 0 0)
(-0.0021121 0 0)
(-0.00211209 0 0)
(-0.00211209 0 0)
(-0.00211209 0 0)
(-0.00211209 0 0)
(-0.00211209 0 0)
(-0.00211209 0 0)
(-0.00211209 0 0)
(-0.00211208 0 0)
(-0.00211209 0 0)
(-0.00211208 0 0)
(-0.00211208 0 0)
(-0.00211208 0 0)
(-0.00211208 0 0)
(-0.00211208 0 0)
(-0.00211208 0 0)
(-0.00211207 0 0)
(-0.00211209 0 0)
(-0.00211207 0 0)
(-0.00211208 0 0)
(-0.00211208 0 0)
(-0.00211207 0 0)
(-0.00211208 0 0)
(-0.00211208 0 0)
(-0.00211208 0 0)
(-0.00211208 0 0)
(-0.00211208 0 0)
(-0.00211208 0 0)
(-0.00211208 0 0)
(-0.00211208 0 0)
(-0.00211208 0 0)
(-0.00211208 0 0)
(-0.00211209 0 0)
(-0.00211209 0 0)
(-0.00211208 0 0)
(-0.00211209 0 0)
(-0.00211209 0 0)
(-0.00211209 0 0)
(-0.00211209 0 0)
(-0.00211209 0 0)
(-0.0021121 0 0)
(-0.0021121 0 0)
(-0.0021121 0 0)
(-0.0021121 0 0)
(-0.0021121 0 0)
(-0.0021121 0 0)
(-0.00211211 0 0)
(-0.00211211 0 0)
(-0.00211211 0 0)
(-0.00211211 0 0)
(-0.00211212 0 0)
(-0.00211211 0 0)
(-0.00211212 0 0)
(-0.00211212 0 0)
(-0.00211212 0 0)
(-0.00211213 0 0)
(-0.00211213 0 0)
(-0.00211213 0 0)
(-0.00211213 0 0)
(-0.00211213 0 0)
(-0.00211213 0 0)
(-0.00211214 0 0)
(-0.00211214 0 0)
(-0.00211214 0 0)
(-0.00211214 0 0)
(-0.00211215 0 0)
(-0.00211214 0 0)
(-0.00211215 0 0)
(-0.00211215 0 0)
(-0.00211215 0 0)
(-0.00211215 0 0)
(-0.00211215 0 0)
(-0.00211215 0 0)
(-0.00211215 0 0)
(-0.00211216 0 0)
(-0.00211215 0 0)
(-0.00211216 0 0)
(-0.00211216 0 0)
(-0.00211215 0 0)
(-0.00211216 0 0)
(-0.00211216 0 0)
(-0.00211216 0 0)
(-0.00211216 0 0)
(-0.00211216 0 0)
(-0.00211216 0 0)
(-0.00211216 0 0)
(-0.00211216 0 0)
(-0.00211216 0 0)
(-0.00211216 0 0)
(-0.00211216 0 0)
(-0.00211216 0 0)
(-0.00211216 0 0)
(-0.00211216 0 0)
(-0.00211216 0 0)
(-0.00211216 0 0)
(-0.00211216 0 0)
(-0.00211216 0 0)
(-0.00211215 0 0)
(-0.00211216 0 0)
(-0.00211215 0 0)
(-0.00211215 0 0)
(-0.00211215 0 0)
(-0.00211215 0 0)
(-0.00211215 0 0)
(-0.00211215 0 0)
(-0.00211215 0 0)
(-0.00211214 0 0)
(-0.00211215 0 0)
(-0.00211214 0 0)
(-0.00211214 0 0)
(-0.00211214 0 0)
(-0.00211214 0 0)
(-0.00211214 0 0)
(-0.00211213 0 0)
(-0.00211214 0 0)
(-0.00211213 0 0)
(-0.00211213 0 0)
(-0.00211213 0 0)
(-0.00211213 0 0)
(-0.00211213 0 0)
(-0.00211212 0 0)
(-0.00211213 0 0)
(-0.00211212 0 0)
(-0.00211212 0 0)
(-0.00211212 0 0)
(-0.00211212 0 0)
(-0.00211212 0 0)
(-0.00211212 0 0)
(-0.00211212 0 0)
(-0.00211211 0 0)
(-0.00211212 0 0)
(-0.00211211 0 0)
(-0.00211212 0 0)
(-0.00211211 0 0)
(-0.00211211 0 0)
(-0.00211211 0 0)
(-0.00211211 0 0)
(-0.00211212 0 0)
(-0.0021121 0 0)
(-0.00211211 0 0)
(-0.0021121 0 0)
(-0.00211211 0 0)
(-0.00211211 0 0)
(-0.0021121 0 0)
(-0.00211211 0 0)
(-0.0021121 0 0)
(-0.00211211 0 0)
(-0.0021121 0 0)
(-0.00211211 0 0)
(-0.0021121 0 0)
(-0.0021121 0 0)
(-0.00211211 0 0)
(-0.0021121 0 0)
(-0.0021121 0 0)
(-0.0021121 0 0)
(-0.0021121 0 0)
(-0.0021121 0 0)
(-0.0021121 0 0)
(-0.0021121 0 0)
(-0.0021121 0 0)
(-0.0021121 0 0)
(-0.0021121 0 0)
(-0.0021121 0 0)
(-0.0021121 0 0)
(-0.0021121 0 0)
(-0.0021121 0 0)
(-0.0021121 0 0)
(-0.0021121 0 0)
(-0.0021121 0 0)
(-0.0021121 0 0)
(-0.0021121 0 0)
(-0.0021121 0 0)
(-0.00211211 0 0)
(-0.0021121 0 0)
(-0.00211211 0 0)
(-0.0021121 0 0)
(-0.00211211 0 0)
(-0.0021121 0 0)
(-0.00211211 0 0)
(-0.0021121 0 0)
(-0.00211211 0 0)
(-0.00211211 0 0)
(-0.0021121 0 0)
(-0.00211211 0 0)
(-0.0021121 0 0)
(-0.00211211 0 0)
(-0.00211211 0 0)
(-0.00211211 0 0)
(-0.00211211 0 0)
(-0.00211211 0 0)
(-0.00211211 0 0)
(-0.00211211 0 0)
(-0.00211211 0 0)
(-0.00211211 0 0)
(-0.00211211 0 0)
(-0.00211211 0 0)
(-0.00211211 0 0)
(-0.00211211 0 0)
(-0.00211211 0 0)
(-0.0021121 0 0)
(-0.00211211 0 0)
(-0.00211211 0 0)
(-0.00211211 0 0)
(-0.00211211 0 0)
(-0.00211211 0 0)
(-0.00211211 0 0)
(-0.0021121 0 0)
(-0.00211211 0 0)
(-0.0021121 0 0)
(-0.0021121 0 0)
(-0.0021121 0 0)
(-0.0021121 0 0)
(-0.00211211 0 0)
(-0.00211209 0 0)
(-0.0021121 0 0)
(-0.0021121 0 0)
(-0.00211209 0 0)
(-0.0021121 0 0)
(-0.00211209 0 0)
(-0.00211209 0 0)
(-0.00211209 0 0)
(-0.00211208 0 0)
(-0.0021121 0 0)
(-0.00211208 0 0)
(-0.00211209 0 0)
(-0.00211209 0 0)
(-0.00211208 0 0)
(-0.00211208 0 0)
(-0.00211208 0 0)
(-0.00211207 0 0)
(-0.00211208 0 0)
(-0.00211207 0 0)
(-0.00211206 0 0)
(-0.00211207 0 0)
(-0.00211206 0 0)
(-0.00211206 0 0)
(-0.00211206 0 0)
(-0.00211206 0 0)
(-0.00211205 0 0)
(-0.00211206 0 0)
(-0.00211204 0 0)
(-0.00211205 0 0)
(-0.00211204 0 0)
(-0.00211204 0 0)
(-0.00211204 0 0)
(-0.00211203 0 0)
(-0.00211204 0 0)
(-0.00211203 0 0)
(-0.00211204 0 0)
(-0.00211203 0 0)
(-0.00211203 0 0)
(-0.00211202 0 0)
(-0.00211203 0 0)
(-0.00211203 0 0)
(-0.00211202 0 0)
(-0.00211203 0 0)
(-0.00211201 0 0)
(-0.00211202 0 0)
(-0.00211201 0 0)
(-0.00211202 0 0)
(-0.00211201 0 0)
(-0.00211201 0 0)
(-0.00211201 0 0)
(-0.00211201 0 0)
(-0.00211201 0 0)
(-0.00211201 0 0)
(-0.00211201 0 0)
(-0.00211201 0 0)
(-0.00211201 0 0)
(-0.00211201 0 0)
(-0.002112 0 0)
(-0.00211201 0 0)
(-0.002112 0 0)
(-0.00211201 0 0)
(-0.00211201 0 0)
(-0.002112 0 0)
(-0.00211201 0 0)
(-0.002112 0 0)
(-0.00211201 0 0)
(-0.00211201 0 0)
(-0.00211201 0 0)
(-0.00211201 0 0)
(-0.00211201 0 0)
(-0.00211201 0 0)
(-0.00211201 0 0)
(-0.00211201 0 0)
(-0.00211201 0 0)
(-0.00211201 0 0)
(-0.00211201 0 0)
(-0.00211201 0 0)
(-0.00211201 0 0)
(-0.00211202 0 0)
(-0.00211201 0 0)
(-0.00211202 0 0)
(-0.00211202 0 0)
(-0.00211202 0 0)
(-0.00211202 0 0)
(-0.00211202 0 0)
(-0.00211202 0 0)
(-0.00211202 0 0)
(-0.00211202 0 0)
(-0.00211203 0 0)
(-0.00211203 0 0)
(-0.00211202 0 0)
(-0.00211203 0 0)
(-0.00211203 0 0)
(-0.00211203 0 0)
(-0.00211203 0 0)
(-0.00211203 0 0)
(-0.00211203 0 0)
(-0.00211203 0 0)
(-0.00211203 0 0)
(-0.00211203 0 0)
(-0.00211203 0 0)
(-0.00211203 0 0)
(-0.00211203 0 0)
(-0.00211203 0 0)
(-0.00211203 0 0)
(-0.00211204 0 0)
(-0.00211203 0 0)
(-0.00211204 0 0)
(-0.00211203 0 0)
(-0.00211203 0 0)
(-0.00211203 0 0)
(-0.00211204 0 0)
(-0.00211203 0 0)
(-0.00211204 0 0)
(-0.00211203 0 0)
(-0.00211203 0 0)
(-0.00211204 0 0)
(-0.00211203 0 0)
(-0.00211204 0 0)
(-0.00211203 0 0)
(-0.00211203 0 0)
(-0.00211203 0 0)
(-0.00211204 0 0)
(-0.00211203 0 0)
(-0.00211203 0 0)
(-0.00211203 0 0)
(-0.00211203 0 0)
(-0.00211204 0 0)
(-0.00211203 0 0)
(-0.00211203 0 0)
(-0.00211203 0 0)
(-0.00211202 0 0)
(-0.00211203 0 0)
(-0.00211202 0 0)
(-0.00211202 0 0)
(-0.00211202 0 0)
(-0.00211202 0 0)
(-0.00211202 0 0)
(-0.00211201 0 0)
(-0.00211202 0 0)
(-0.00211201 0 0)
(-0.00211201 0 0)
(-0.00211201 0 0)
(-0.002112 0 0)
(-0.00211201 0 0)
(-0.00211199 0 0)
(-0.00211199 0 0)
(-0.00211199 0 0)
(-0.00211198 0 0)
(-0.00211199 0 0)
(-0.00211198 0 0)
(-0.00211197 0 0)
(-0.00211197 0 0)
(-0.00211196 0 0)
(-0.00211196 0 0)
(-0.00211195 0 0)
(-0.00211195 0 0)
(-0.00211194 0 0)
(-0.00211194 0 0)
(-0.00211193 0 0)
(-0.00211193 0 0)
(-0.00211192 0 0)
(-0.00211192 0 0)
(-0.00211191 0 0)
(-0.0021119 0 0)
(-0.0021119 0 0)
(-0.00211189 0 0)
(-0.00211189 0 0)
(-0.00211188 0 0)
(-0.00211187 0 0)
(-0.00211187 0 0)
(-0.00211186 0 0)
(-0.00211186 0 0)
(-0.00211185 0 0)
(-0.00211185 0 0)
(-0.00211184 0 0)
(-0.00211183 0 0)
(-0.00211183 0 0)
(-0.00211182 0 0)
(-0.00211182 0 0)
(-0.00211181 0 0)
(-0.00211181 0 0)
(-0.00211181 0 0)
(-0.00211181 0 0)
(-0.0021118 0 0)
(-0.0021118 0 0)
(-0.0021118 0 0)
(-0.00211179 0 0)
(-0.0021118 0 0)
(-0.00211178 0 0)
(-0.00211179 0 0)
(-0.00211179 0 0)
(-0.00211178 0 0)
(-0.00211179 0 0)
(-0.00211178 0 0)
(-0.00211179 0 0)
(-0.00211179 0 0)
(-0.00211178 0 0)
(-0.0021118 0 0)
(-0.00211179 0 0)
(-0.0021118 0 0)
(-0.0021118 0 0)
(-0.0021118 0 0)
(-0.0021118 0 0)
(-0.00211181 0 0)
(-0.00211181 0 0)
(-0.00211182 0 0)
(-0.00211182 0 0)
(-0.00211183 0 0)
(-0.00211183 0 0)
(-0.00211184 0 0)
(-0.00211184 0 0)
(-0.00211185 0 0)
(-0.00211185 0 0)
(-0.00211186 0 0)
(-0.00211187 0 0)
(-0.00211187 0 0)
(-0.00211188 0 0)
(-0.00211189 0 0)
(-0.00211189 0 0)
(-0.0021119 0 0)
(-0.0021119 0 0)
(-0.00211191 0 0)
(-0.00211192 0 0)
(-0.00211192 0 0)
(-0.00211193 0 0)
(-0.00211194 0 0)
(-0.00211194 0 0)
(-0.00211195 0 0)
(-0.00211195 0 0)
(-0.00211196 0 0)
(-0.00211196 0 0)
(-0.00211197 0 0)
(-0.00211197 0 0)
(-0.00211197 0 0)
(-0.00211198 0 0)
(-0.00211198 0 0)
(-0.00211198 0 0)
(-0.00211199 0 0)
(-0.00211199 0 0)
(-0.00211199 0 0)
(-0.00211199 0 0)
(-0.00211199 0 0)
(-0.00211199 0 0)
(-0.00211199 0 0)
(-0.00211199 0 0)
(-0.00211199 0 0)
(-0.00211199 0 0)
(-0.00211198 0 0)
(-0.00211199 0 0)
(-0.00211198 0 0)
(-0.00211198 0 0)
(-0.00211197 0 0)
(-0.00211197 0 0)
(-0.00211196 0 0)
(-0.00211196 0 0)
(-0.00211195 0 0)
(-0.00211194 0 0)
(-0.00211194 0 0)
(-0.00211193 0 0)
(-0.00211192 0 0)
(-0.00211192 0 0)
(-0.00211191 0 0)
(-0.0021119 0 0)
(-0.00211189 0 0)
(-0.00211188 0 0)
(-0.00211187 0 0)
(-0.00211187 0 0)
(-0.00211186 0 0)
(-0.00211185 0 0)
(-0.00211184 0 0)
(-0.00211183 0 0)
(-0.00211182 0 0)
(-0.00211181 0 0)
(-0.0021118 0 0)
(-0.00211179 0 0)
(-0.00211179 0 0)
(-0.00211178 0 0)
(-0.00211177 0 0)
(-0.00211176 0 0)
(-0.00211175 0 0)
(-0.00211174 0 0)
(-0.00211174 0 0)
(-0.00211173 0 0)
(-0.00211172 0 0)
(-0.00211171 0 0)
(-0.00211171 0 0)
(-0.0021117 0 0)
(-0.0021117 0 0)
(-0.00211169 0 0)
(-0.00211168 0 0)
(-0.00211169 0 0)
(-0.00211168 0 0)
(-0.00211167 0 0)
(-0.00211168 0 0)
(-0.00211166 0 0)
(-0.00211167 0 0)
(-0.00211166 0 0)
(-0.00211166 0 0)
(-0.00211167 0 0)
(-0.00211165 0 0)
(-0.00211166 0 0)
(-0.00211166 0 0)
(-0.00211165 0 0)
(-0.00211166 0 0)
(-0.00211165 0 0)
(-0.00211166 0 0)
(-0.00211166 0 0)
(-0.00211166 0 0)
(-0.00211166 0 0)
(-0.00211166 0 0)
(-0.00211167 0 0)
(-0.00211166 0 0)
(-0.00211167 0 0)
(-0.00211167 0 0)
(-0.00211167 0 0)
(-0.00211167 0 0)
(-0.00211167 0 0)
(-0.00211168 0 0)
(-0.00211167 0 0)
(-0.00211168 0 0)
(-0.00211168 0 0)
(-0.00211168 0 0)
(-0.00211169 0 0)
(-0.00211168 0 0)
(-0.00211169 0 0)
(-0.00211169 0 0)
(-0.00211169 0 0)
(-0.00211169 0 0)
(-0.0021117 0 0)
(-0.00211169 0 0)
(-0.0021117 0 0)
(-0.0021117 0 0)
(-0.0021117 0 0)
(-0.00211171 0 0)
(-0.00211171 0 0)
(-0.00211171 0 0)
(-0.00211172 0 0)
(-0.00211172 0 0)
(-0.00211173 0 0)
(-0.00211174 0 0)
(-0.00211175 0 0)
(-0.00211177 0 0)
(-0.00211178 0 0)
(-0.0021118 0 0)
(-0.00211182 0 0)
(-0.00211185 0 0)
(-0.00211188 0 0)
(-0.00211192 0 0)
(-0.00211197 0 0)
(-0.00211202 0 0)
(-0.00211208 0 0)
(-0.00211216 0 0)
(-0.00211225 0 0)
(-0.00211235 0 0)
(-0.00211247 0 0)
(-0.00211261 0 0)
(-0.00211277 0 0)
(-0.00211296 0 0)
(-0.00211319 0 0)
(-0.00211344 0 0)
(-0.00211374 0 0)
(-0.00211408 0 0)
(-0.00211448 0 0)
(-0.00211493 0 0)
(-0.00211545 0 0)
(-0.00211606 0 0)
(-0.00211674 0 0)
(-0.00211753 0 0)
(-0.00211843 0 0)
(-0.00211946 0 0)
(-0.00212063 0 0)
(-0.00212196 0 0)
(-0.00212347 0 0)
(-0.00212519 0 0)
(-0.00212713 0 0)
(-0.00212932 0 0)
(-0.0021318 0 0)
(-0.00213458 0 0)
(-0.00213772 0 0)
(-0.00214125 0 0)
(-0.0021452 0 0)
(-0.00214963 0 0)
(-0.00215458 0 0)
(-0.0021601 0 0)
(-0.00216625 0 0)
(-0.00217309 0 0)
(-0.00218069 0 0)
(-0.00218911 0 0)
(-0.00219843 0 0)
(-0.00220873 0 0)
(-0.00222008 0 0)
(-0.00223258 0 0)
(-0.00224632 0 0)
(-0.00226138 0 0)
(-0.00227787 0 0)
(-0.0022959 0 0)
(-0.00231556 0 0)
(-0.00233696 0 0)
(-0.00236023 0 0)
(-0.00238546 0 0)
(-0.00241277 0 0)
(-0.00244228 0 0)
(-0.00247411 0 0)
(-0.00250836 0 0)
(-0.00254514 0 0)
(-0.00258457 0 0)
(-0.00262673 0 0)
(-0.00267174 0 0)
(-0.00271968 0 0)
(-0.00277063 0 0)
(-0.00282467 0 0)
(-0.00288184 0 0)
(-0.00294219 0 0)
(-0.00300576 0 0)
(-0.00307255 0 0)
(-0.00314256 0 0)
(-0.00321576 0 0)
(-0.00329208 0 0)
(-0.00337146 0 0)
(-0.00345378 0 0)
(-0.0035389 0 0)
(-0.00362665 0 0)
(-0.00371682 0 0)
(-0.00380917 0 0)
(-0.0039034 0 0)
(-0.00399918 0 0)
(-0.00409613 0 0)
(-0.00419382 0 0)
(-0.00429176 0 0)
(-0.00438941 0 0)
(-0.00448617 0 0)
(-0.00458137 0 0)
(-0.00467426 0 0)
(-0.00476401 0 0)
(-0.00484994 0 0)
(-0.00493116 0 0)
(-0.00500575 0 0)
(-0.00507155 0 0)
(-0.00512756 0 0)
(-0.00517263 0 0)
(-0.00520584 0 0)
(-0.00522424 0 0)
(-0.00522597 0 0)
(-0.00520806 0 0)
(-0.00516667 0 0)
(-0.00509893 0 0)
(-0.00499963 0 0)
(-0.00486504 0 0)
(-0.00469075 0 0)
(-0.00447091 0 0)
(-0.00418086 0 0)
(-0.00377456 0 0)
(-0.00333029 0 0)
)
;

boundaryField
{
    fixedWall
    {
        type            fixedValue;
        value           uniform (0 0 0);
    }
    outlet
    {
        type            pressureInletOutletVelocity;
        value           uniform (-0.00333029 0 0);
    }
    defaultFaces
    {
        type            empty;
    }
}


// ************************************************************************* //
