/*--------------------------------*- C++ -*----------------------------------*\
| =========                 |                                                 |
| \\      /  F ield         | OpenFOAM: The Open Source CFD Toolbox           |
|  \\    /   O peration     | Version:  2406                                  |
|   \\  /    A nd           | Website:  www.openfoam.com                      |
|    \\/     M anipulation  |                                                 |
\*---------------------------------------------------------------------------*/
FoamFile
{
    version     2.0;
    format      ascii;
    arch        "LSB;label=32;scalar=64";
    class       volScalarField;
    location    "4.6";
    object      CO2;
}
// * * * * * * * * * * * * * * * * * * * * * * * * * * * * * * * * * * * * * //

dimensions      [0 0 0 0 0 0 0];

internalField   nonuniform List<scalar> 
1000
(
0.0709258
0.0709258
0.0709258
0.0709258
0.0709258
0.0709258
0.0709259
0.0709259
0.0709259
0.0709259
0.0709259
0.0709259
0.0709259
0.0709259
0.0709259
0.070926
0.070926
0.070926
0.070926
0.070926
0.070926
0.070926
0.0709261
0.0709261
0.0709261
0.0709261
0.0709261
0.0709261
0.0709262
0.0709262
0.0709262
0.0709262
0.0709262
0.0709262
0.0709262
0.0709262
0.0709263
0.0709263
0.0709263
0.0709263
0.0709263
0.0709263
0.0709263
0.0709263
0.0709264
0.0709264
0.0709264
0.0709264
0.0709264
0.0709264
0.0709264
0.0709264
0.0709264
0.0709264
0.0709264
0.0709264
0.0709264
0.0709265
0.0709265
0.0709265
0.0709265
0.0709265
0.0709265
0.0709265
0.0709265
0.0709265
0.0709265
0.0709265
0.0709265
0.0709265
0.0709265
0.0709265
0.0709265
0.0709265
0.0709265
0.0709265
0.0709265
0.0709265
0.0709265
0.0709265
0.0709265
0.0709265
0.0709265
0.0709265
0.0709265
0.0709265
0.0709265
0.0709265
0.0709265
0.0709265
0.0709265
0.0709265
0.0709265
0.0709265
0.0709265
0.0709265
0.0709265
0.0709265
0.0709265
0.0709265
0.0709265
0.0709265
0.0709265
0.0709265
0.0709265
0.0709265
0.0709265
0.0709265
0.0709265
0.0709265
0.0709265
0.0709265
0.0709265
0.0709265
0.0709265
0.0709265
0.0709265
0.0709265
0.0709265
0.0709265
0.0709265
0.0709265
0.0709265
0.0709265
0.0709265
0.0709265
0.0709265
0.0709265
0.0709265
0.0709265
0.0709265
0.0709265
0.0709265
0.0709265
0.0709265
0.0709265
0.0709265
0.0709265
0.0709265
0.0709265
0.0709265
0.0709265
0.0709265
0.0709265
0.0709265
0.0709265
0.0709265
0.0709265
0.0709265
0.0709265
0.0709265
0.0709265
0.0709265
0.0709265
0.0709265
0.0709265
0.0709265
0.0709265
0.0709265
0.0709265
0.0709265
0.0709265
0.0709265
0.0709265
0.0709265
0.0709265
0.0709265
0.0709265
0.0709265
0.0709265
0.0709265
0.0709265
0.0709265
0.0709265
0.0709265
0.0709265
0.0709265
0.0709265
0.0709265
0.0709265
0.0709265
0.0709265
0.0709265
0.0709265
0.0709265
0.0709265
0.0709265
0.0709265
0.0709265
0.0709265
0.0709265
0.0709265
0.0709265
0.0709265
0.0709265
0.0709265
0.0709265
0.0709265
0.0709265
0.0709265
0.0709265
0.0709265
0.0709265
0.0709265
0.0709265
0.0709265
0.0709265
0.0709265
0.0709265
0.0709265
0.0709265
0.0709265
0.0709265
0.0709265
0.0709265
0.0709265
0.0709265
0.0709265
0.0709265
0.0709265
0.0709264
0.0709264
0.0709264
0.0709264
0.0709264
0.0709264
0.0709264
0.0709264
0.0709264
0.0709264
0.0709264
0.0709264
0.0709264
0.0709264
0.0709264
0.0709264
0.0709264
0.0709264
0.0709264
0.0709264
0.0709264
0.0709264
0.0709264
0.0709264
0.0709264
0.0709264
0.0709264
0.0709264
0.0709264
0.0709264
0.0709264
0.0709264
0.0709264
0.0709264
0.0709264
0.0709264
0.0709264
0.0709264
0.0709264
0.0709264
0.0709264
0.0709264
0.0709264
0.0709264
0.0709264
0.0709264
0.0709264
0.0709264
0.0709264
0.0709264
0.0709264
0.0709264
0.0709264
0.0709264
0.0709264
0.0709264
0.0709264
0.0709264
0.0709264
0.0709264
0.0709264
0.0709264
0.0709264
0.0709264
0.0709264
0.0709264
0.0709264
0.0709264
0.0709264
0.0709264
0.0709264
0.0709264
0.0709264
0.0709264
0.0709264
0.0709264
0.0709264
0.0709264
0.0709264
0.0709264
0.0709264
0.0709264
0.0709264
0.0709264
0.0709264
0.0709264
0.0709264
0.0709264
0.0709264
0.0709264
0.0709264
0.0709264
0.0709264
0.0709264
0.0709264
0.0709264
0.0709264
0.0709264
0.0709264
0.0709264
0.0709263
0.0709263
0.0709263
0.0709263
0.0709263
0.0709263
0.0709263
0.0709263
0.0709263
0.0709263
0.0709263
0.0709263
0.0709263
0.0709263
0.0709263
0.0709263
0.0709263
0.0709263
0.0709263
0.0709263
0.0709263
0.0709263
0.0709263
0.0709263
0.0709263
0.0709263
0.0709263
0.0709263
0.0709263
0.0709263
0.0709263
0.0709263
0.0709263
0.0709263
0.0709263
0.0709263
0.0709263
0.0709263
0.0709263
0.0709263
0.0709263
0.0709263
0.0709263
0.0709263
0.0709263
0.0709263
0.0709263
0.0709263
0.0709263
0.0709263
0.0709263
0.0709263
0.0709263
0.0709263
0.0709263
0.0709263
0.0709263
0.0709263
0.0709263
0.0709263
0.0709263
0.0709263
0.0709263
0.0709263
0.0709263
0.0709263
0.0709263
0.0709263
0.0709262
0.0709262
0.0709262
0.0709262
0.0709262
0.0709262
0.0709262
0.0709262
0.0709262
0.0709262
0.0709262
0.0709262
0.0709262
0.0709262
0.0709262
0.0709262
0.0709262
0.0709262
0.0709262
0.0709262
0.0709262
0.0709262
0.0709262
0.0709262
0.0709262
0.0709262
0.0709262
0.0709262
0.0709262
0.0709262
0.0709262
0.0709262
0.0709262
0.0709262
0.0709262
0.0709262
0.0709262
0.0709262
0.0709262
0.0709262
0.0709262
0.0709262
0.0709262
0.0709262
0.0709262
0.0709262
0.0709262
0.0709262
0.0709262
0.0709261
0.0709261
0.0709261
0.0709261
0.0709261
0.0709261
0.0709261
0.0709261
0.0709261
0.0709261
0.0709261
0.0709261
0.0709261
0.0709261
0.0709261
0.0709261
0.0709261
0.0709261
0.0709261
0.0709261
0.0709261
0.0709261
0.0709261
0.0709261
0.0709261
0.0709261
0.0709261
0.0709261
0.0709261
0.0709261
0.0709261
0.0709261
0.0709261
0.0709261
0.0709261
0.0709261
0.070926
0.070926
0.070926
0.070926
0.070926
0.070926
0.070926
0.070926
0.070926
0.070926
0.070926
0.070926
0.070926
0.070926
0.070926
0.070926
0.070926
0.070926
0.070926
0.070926
0.070926
0.070926
0.070926
0.070926
0.070926
0.070926
0.070926
0.070926
0.0709259
0.0709259
0.0709259
0.0709259
0.0709259
0.0709259
0.0709259
0.0709259
0.0709259
0.0709259
0.0709259
0.0709259
0.0709259
0.0709259
0.0709259
0.0709259
0.0709259
0.0709259
0.0709259
0.0709259
0.0709259
0.0709259
0.0709259
0.0709258
0.0709258
0.0709258
0.0709258
0.0709258
0.0709258
0.0709258
0.0709258
0.0709258
0.0709258
0.0709258
0.0709258
0.0709258
0.0709258
0.0709258
0.0709258
0.0709258
0.0709258
0.0709257
0.0709257
0.0709257
0.0709257
0.0709257
0.0709257
0.0709257
0.0709257
0.0709257
0.0709257
0.0709257
0.0709257
0.0709257
0.0709257
0.0709257
0.0709257
0.0709256
0.0709256
0.0709256
0.0709256
0.0709256
0.0709256
0.0709256
0.0709256
0.0709256
0.0709256
0.0709256
0.0709256
0.0709256
0.0709255
0.0709255
0.0709255
0.0709255
0.0709255
0.0709255
0.0709255
0.0709255
0.0709255
0.0709255
0.0709255
0.0709254
0.0709254
0.0709254
0.0709254
0.0709254
0.0709254
0.0709254
0.0709254
0.0709254
0.0709254
0.0709253
0.0709253
0.0709253
0.0709253
0.0709253
0.0709253
0.0709253
0.0709253
0.0709252
0.0709252
0.0709252
0.0709252
0.0709252
0.0709252
0.0709252
0.0709252
0.0709251
0.0709251
0.0709251
0.0709251
0.0709251
0.0709251
0.070925
0.070925
0.070925
0.070925
0.070925
0.070925
0.0709249
0.0709249
0.0709249
0.0709249
0.0709249
0.0709249
0.0709248
0.0709248
0.0709248
0.0709248
0.0709248
0.0709247
0.0709247
0.0709247
0.0709247
0.0709246
0.0709246
0.0709246
0.0709246
0.0709245
0.0709245
0.0709245
0.0709245
0.0709244
0.0709244
0.0709244
0.0709243
0.0709243
0.0709243
0.0709242
0.0709242
0.0709242
0.0709241
0.0709241
0.0709241
0.070924
0.070924
0.070924
0.0709239
0.0709239
0.0709238
0.0709238
0.0709237
0.0709237
0.0709236
0.0709236
0.0709235
0.0709235
0.0709234
0.0709234
0.0709233
0.0709232
0.0709232
0.0709231
0.070923
0.070923
0.0709229
0.0709228
0.0709228
0.0709227
0.0709226
0.0709225
0.0709224
0.0709223
0.0709222
0.0709221
0.070922
0.0709219
0.0709218
0.0709216
0.0709215
0.0709213
0.0709212
0.070921
0.0709209
0.0709207
0.0709205
0.0709203
0.0709201
0.0709199
0.0709197
0.0709194
0.0709191
0.0709189
0.0709185
0.0709182
0.0709179
0.0709175
0.070917
0.0709166
0.0709161
0.0709155
0.0709149
0.0709142
0.0709134
0.0709125
0.0709115
0.0709104
0.0709091
0.0709076
0.0709059
0.0709038
0.0709014
0.0708984
0.0708946
0.0708899
0.0708838
0.0708755
0.0708639
0.0708464
0.0708177
0.0707647
0.0706503
0.0703514
0.0694187
0.0660877
0.0515226
0.0256466
0.0126435
0.00624975
0.00309805
0.00153905
0.000765796
0.000381498
0.000190216
9.48971e-05
4.73603e-05
2.36406e-05
1.18015e-05
5.89151e-06
2.94113e-06
1.46826e-06
7.32999e-07
3.65983e-07
1.82771e-07
9.13121e-08
4.56713e-08
2.28837e-08
1.15008e-08
5.7439e-09
3.03353e-09
1.78117e-09
1.24292e-09
7.19753e-10
4.58201e-10
3.13941e-10
2.62073e-10
2.3251e-10
2.15345e-10
2.01029e-10
1.93718e-10
1.90895e-10
1.88427e-10
1.87455e-10
1.8677e-10
1.86365e-10
1.86134e-10
1.8601e-10
1.85892e-10
1.85858e-10
1.85827e-10
1.85809e-10
1.85802e-10
1.85798e-10
1.85796e-10
1.85795e-10
1.85795e-10
1.85795e-10
1.85796e-10
1.85797e-10
1.85797e-10
1.85798e-10
1.85799e-10
1.858e-10
1.85801e-10
1.85802e-10
1.85803e-10
1.85803e-10
1.85804e-10
1.85805e-10
1.85806e-10
1.85807e-10
1.85808e-10
1.85809e-10
1.85809e-10
1.8581e-10
1.85811e-10
1.85812e-10
1.85812e-10
1.85813e-10
1.85815e-10
1.85815e-10
1.85816e-10
1.85817e-10
1.85818e-10
1.85819e-10
1.8582e-10
1.85821e-10
1.85821e-10
1.85822e-10
1.85823e-10
1.85824e-10
1.85825e-10
1.85825e-10
1.85826e-10
1.85827e-10
1.85828e-10
1.85829e-10
1.8583e-10
1.8583e-10
1.85831e-10
1.85832e-10
1.85833e-10
1.85834e-10
1.85835e-10
1.85835e-10
1.85836e-10
1.85837e-10
1.85838e-10
1.85839e-10
1.85839e-10
1.8584e-10
1.85841e-10
1.85842e-10
1.85843e-10
1.85844e-10
1.85845e-10
1.85846e-10
1.85846e-10
1.85847e-10
1.85848e-10
1.85849e-10
1.8585e-10
1.85851e-10
1.85852e-10
1.85853e-10
1.85854e-10
1.85854e-10
1.85856e-10
1.85857e-10
1.85858e-10
1.85858e-10
1.85859e-10
1.8586e-10
1.85861e-10
1.85862e-10
1.85862e-10
1.85864e-10
1.85865e-10
1.85866e-10
1.85867e-10
1.85867e-10
1.85868e-10
1.85869e-10
1.8587e-10
1.85871e-10
1.85872e-10
1.85872e-10
1.85873e-10
1.85874e-10
1.85875e-10
1.85876e-10
1.85876e-10
1.85877e-10
1.85878e-10
1.85879e-10
1.8588e-10
1.8588e-10
1.85881e-10
1.85882e-10
1.85883e-10
1.85884e-10
1.85885e-10
1.85885e-10
1.85886e-10
1.85887e-10
1.85888e-10
1.85889e-10
1.8589e-10
1.85891e-10
1.85892e-10
1.85893e-10
1.85894e-10
1.85895e-10
1.85896e-10
1.85897e-10
1.85897e-10
1.85898e-10
1.85899e-10
1.859e-10
1.85901e-10
1.85902e-10
1.85903e-10
1.85904e-10
1.85904e-10
1.85905e-10
1.85907e-10
1.85907e-10
1.85908e-10
1.85909e-10
1.8591e-10
1.85911e-10
1.85912e-10
1.85913e-10
1.85914e-10
1.85915e-10
1.85916e-10
1.85917e-10
1.85917e-10
1.85918e-10
1.85919e-10
1.8592e-10
1.85921e-10
1.85922e-10
1.85923e-10
1.85923e-10
1.85924e-10
1.85925e-10
1.85926e-10
1.85926e-10
1.85927e-10
1.85928e-10
1.85929e-10
1.8593e-10
1.85931e-10
1.85932e-10
1.85933e-10
1.85933e-10
1.85934e-10
1.85935e-10
1.85936e-10
1.85937e-10
1.85938e-10
1.85938e-10
1.85939e-10
1.8594e-10
1.85941e-10
1.85942e-10
1.85943e-10
1.85944e-10
1.85945e-10
1.85945e-10
1.85946e-10
1.85947e-10
1.85948e-10
1.85949e-10
1.8595e-10
1.85951e-10
1.85952e-10
1.85952e-10
1.85954e-10
1.85954e-10
1.85955e-10
1.85956e-10
1.85957e-10
1.85957e-10
1.85958e-10
1.85959e-10
1.8596e-10
1.85961e-10
1.85962e-10
1.85963e-10
1.85964e-10
1.85964e-10
1.85966e-10
1.85966e-10
1.85967e-10
1.85968e-10
1.85969e-10
1.8597e-10
1.85971e-10
1.85972e-10
1.85973e-10
1.85974e-10
1.85974e-10
1.85975e-10
1.85976e-10
1.85977e-10
1.85978e-10
1.85979e-10
)
;

boundaryField
{
    fixedWall
    {
        type            zeroGradient;
    }
    outlet
    {
        type            inletOutlet;
        inletValue      uniform 0;
        value           uniform 1.85979e-10;
    }
    defaultFaces
    {
        type            empty;
    }
}


// ************************************************************************* //
