/*--------------------------------*- C++ -*----------------------------------*\
| =========                 |                                                 |
| \\      /  F ield         | OpenFOAM: The Open Source CFD Toolbox           |
|  \\    /   O peration     | Version:  2406                                  |
|   \\  /    A nd           | Website:  www.openfoam.com                      |
|    \\/     M anipulation  |                                                 |
\*---------------------------------------------------------------------------*/
FoamFile
{
    version     2.0;
    format      ascii;
    arch        "LSB;label=32;scalar=64";
    class       surfaceScalarField;
    location    "4.6";
    object      phi;
}
// * * * * * * * * * * * * * * * * * * * * * * * * * * * * * * * * * * * * * //

dimensions      [1 0 -1 0 0 0 0];

oriented        oriented;

internalField   nonuniform List<scalar> 
999
(
-6.17979e-08
-1.89666e-07
-3.502e-07
-5.27176e-07
-7.11988e-07
-8.9978e-07
-1.08771e-06
-1.27409e-06
-1.45786e-06
-1.63841e-06
-1.81537e-06
-1.98851e-06
-2.15775e-06
-2.32304e-06
-2.48439e-06
-2.64184e-06
-2.79544e-06
-2.94525e-06
-3.09136e-06
-3.23383e-06
-3.37275e-06
-3.50818e-06
-3.6402e-06
-3.7689e-06
-3.89433e-06
-4.01658e-06
-4.1357e-06
-4.25176e-06
-4.36483e-06
-4.47496e-06
-4.58221e-06
-4.68664e-06
-4.78831e-06
-4.88726e-06
-4.98355e-06
-5.07722e-06
-5.16833e-06
-5.25692e-06
-5.34304e-06
-5.42674e-06
-5.50805e-06
-5.58703e-06
-5.66372e-06
-5.73815e-06
-5.81037e-06
-5.88042e-06
-5.94834e-06
-6.01418e-06
-6.07796e-06
-6.13974e-06
-6.19955e-06
-6.25743e-06
-6.31342e-06
-6.36755e-06
-6.41987e-06
-6.47042e-06
-6.51924e-06
-6.56635e-06
-6.6118e-06
-6.65563e-06
-6.69788e-06
-6.73857e-06
-6.77776e-06
-6.81548e-06
-6.85176e-06
-6.88664e-06
-6.92015e-06
-6.95234e-06
-6.98324e-06
-7.01289e-06
-7.04132e-06
-7.06856e-06
-7.09466e-06
-7.11964e-06
-7.14355e-06
-7.1664e-06
-7.18825e-06
-7.20912e-06
-7.22904e-06
-7.24804e-06
-7.26616e-06
-7.28343e-06
-7.29988e-06
-7.31554e-06
-7.33043e-06
-7.34459e-06
-7.35805e-06
-7.37083e-06
-7.38296e-06
-7.39446e-06
-7.40536e-06
-7.41564e-06
-7.42531e-06
-7.43459e-06
-7.44341e-06
-7.45169e-06
-7.45951e-06
-7.4669e-06
-7.47388e-06
-7.48046e-06
-7.48667e-06
-7.49252e-06
-7.49803e-06
-7.50322e-06
-7.5081e-06
-7.51269e-06
-7.517e-06
-7.52106e-06
-7.52487e-06
-7.52845e-06
-7.5318e-06
-7.53496e-06
-7.53791e-06
-7.54069e-06
-7.54329e-06
-7.54573e-06
-7.54801e-06
-7.55016e-06
-7.55217e-06
-7.55405e-06
-7.55582e-06
-7.55747e-06
-7.55903e-06
-7.56048e-06
-7.56185e-06
-7.56313e-06
-7.56434e-06
-7.56547e-06
-7.56654e-06
-7.56754e-06
-7.56849e-06
-7.56938e-06
-7.57022e-06
-7.57101e-06
-7.57177e-06
-7.57248e-06
-7.57316e-06
-7.5738e-06
-7.57441e-06
-7.575e-06
-7.57556e-06
-7.57609e-06
-7.5766e-06
-7.57709e-06
-7.57757e-06
-7.57803e-06
-7.57847e-06
-7.57889e-06
-7.57931e-06
-7.57971e-06
-7.5801e-06
-7.58049e-06
-7.58086e-06
-7.58123e-06
-7.58159e-06
-7.58194e-06
-7.58229e-06
-7.58263e-06
-7.58296e-06
-7.5833e-06
-7.58363e-06
-7.58395e-06
-7.58427e-06
-7.58459e-06
-7.58491e-06
-7.58522e-06
-7.58554e-06
-7.58585e-06
-7.58616e-06
-7.58646e-06
-7.58677e-06
-7.58708e-06
-7.58738e-06
-7.58769e-06
-7.58799e-06
-7.58829e-06
-7.58859e-06
-7.58889e-06
-7.58919e-06
-7.58949e-06
-7.58978e-06
-7.59008e-06
-7.59038e-06
-7.59067e-06
-7.59097e-06
-7.59126e-06
-7.59155e-06
-7.59185e-06
-7.59214e-06
-7.59243e-06
-7.59272e-06
-7.59301e-06
-7.5933e-06
-7.59359e-06
-7.59387e-06
-7.59416e-06
-7.59444e-06
-7.59473e-06
-7.59501e-06
-7.5953e-06
-7.59558e-06
-7.59586e-06
-7.59614e-06
-7.59642e-06
-7.5967e-06
-7.59697e-06
-7.59725e-06
-7.59752e-06
-7.5978e-06
-7.59807e-06
-7.59834e-06
-7.59861e-06
-7.59888e-06
-7.59915e-06
-7.59941e-06
-7.59968e-06
-7.59994e-06
-7.6002e-06
-7.60046e-06
-7.60073e-06
-7.60098e-06
-7.60124e-06
-7.6015e-06
-7.60175e-06
-7.602e-06
-7.60226e-06
-7.60251e-06
-7.60276e-06
-7.60301e-06
-7.60325e-06
-7.6035e-06
-7.60374e-06
-7.60398e-06
-7.60423e-06
-7.60446e-06
-7.6047e-06
-7.60494e-06
-7.60517e-06
-7.60541e-06
-7.60564e-06
-7.60587e-06
-7.6061e-06
-7.60633e-06
-7.60655e-06
-7.60678e-06
-7.607e-06
-7.60722e-06
-7.60745e-06
-7.60766e-06
-7.60788e-06
-7.6081e-06
-7.60831e-06
-7.60853e-06
-7.60874e-06
-7.60895e-06
-7.60916e-06
-7.60936e-06
-7.60957e-06
-7.60978e-06
-7.60998e-06
-7.61018e-06
-7.61038e-06
-7.61058e-06
-7.61078e-06
-7.61097e-06
-7.61117e-06
-7.61136e-06
-7.61156e-06
-7.61175e-06
-7.61194e-06
-7.61212e-06
-7.61231e-06
-7.6125e-06
-7.61268e-06
-7.61286e-06
-7.61305e-06
-7.61323e-06
-7.61341e-06
-7.61358e-06
-7.61376e-06
-7.61394e-06
-7.61411e-06
-7.61429e-06
-7.61446e-06
-7.61463e-06
-7.6148e-06
-7.61497e-06
-7.61514e-06
-7.61531e-06
-7.61547e-06
-7.61564e-06
-7.6158e-06
-7.61596e-06
-7.61613e-06
-7.61629e-06
-7.61645e-06
-7.61661e-06
-7.61677e-06
-7.61692e-06
-7.61708e-06
-7.61724e-06
-7.61739e-06
-7.61754e-06
-7.6177e-06
-7.61785e-06
-7.618e-06
-7.61815e-06
-7.61829e-06
-7.61844e-06
-7.61859e-06
-7.61873e-06
-7.61888e-06
-7.61902e-06
-7.61916e-06
-7.6193e-06
-7.61944e-06
-7.61958e-06
-7.61972e-06
-7.61986e-06
-7.61999e-06
-7.62013e-06
-7.62026e-06
-7.62039e-06
-7.62052e-06
-7.62065e-06
-7.62078e-06
-7.6209e-06
-7.62103e-06
-7.62115e-06
-7.62127e-06
-7.6214e-06
-7.62152e-06
-7.62163e-06
-7.62175e-06
-7.62187e-06
-7.62198e-06
-7.62209e-06
-7.62221e-06
-7.62232e-06
-7.62243e-06
-7.62254e-06
-7.62264e-06
-7.62275e-06
-7.62285e-06
-7.62296e-06
-7.62306e-06
-7.62316e-06
-7.62326e-06
-7.62336e-06
-7.62345e-06
-7.62355e-06
-7.62365e-06
-7.62374e-06
-7.62383e-06
-7.62393e-06
-7.62402e-06
-7.62411e-06
-7.6242e-06
-7.62429e-06
-7.62437e-06
-7.62446e-06
-7.62455e-06
-7.62463e-06
-7.62472e-06
-7.6248e-06
-7.62489e-06
-7.62497e-06
-7.62505e-06
-7.62514e-06
-7.62522e-06
-7.6253e-06
-7.62538e-06
-7.62546e-06
-7.62554e-06
-7.62562e-06
-7.62571e-06
-7.62579e-06
-7.62587e-06
-7.62595e-06
-7.62602e-06
-7.62611e-06
-7.62618e-06
-7.62626e-06
-7.62634e-06
-7.62642e-06
-7.6265e-06
-7.62658e-06
-7.62666e-06
-7.62674e-06
-7.62682e-06
-7.6269e-06
-7.62698e-06
-7.62706e-06
-7.62714e-06
-7.62722e-06
-7.6273e-06
-7.62737e-06
-7.62745e-06
-7.62753e-06
-7.6276e-06
-7.62768e-06
-7.62775e-06
-7.62783e-06
-7.6279e-06
-7.62797e-06
-7.62804e-06
-7.62811e-06
-7.62818e-06
-7.62824e-06
-7.62831e-06
-7.62837e-06
-7.62843e-06
-7.62848e-06
-7.62854e-06
-7.62859e-06
-7.62864e-06
-7.62869e-06
-7.62873e-06
-7.62877e-06
-7.62881e-06
-7.62884e-06
-7.62887e-06
-7.62889e-06
-7.62892e-06
-7.62894e-06
-7.62895e-06
-7.62896e-06
-7.62897e-06
-7.62897e-06
-7.62897e-06
-7.62897e-06
-7.62896e-06
-7.62894e-06
-7.62892e-06
-7.6289e-06
-7.62888e-06
-7.62885e-06
-7.62882e-06
-7.62878e-06
-7.62874e-06
-7.6287e-06
-7.62865e-06
-7.6286e-06
-7.62855e-06
-7.6285e-06
-7.62844e-06
-7.62839e-06
-7.62833e-06
-7.62827e-06
-7.6282e-06
-7.62814e-06
-7.62808e-06
-7.62801e-06
-7.62795e-06
-7.62788e-06
-7.62782e-06
-7.62775e-06
-7.62769e-06
-7.62762e-06
-7.62756e-06
-7.6275e-06
-7.62743e-06
-7.62737e-06
-7.62731e-06
-7.62725e-06
-7.6272e-06
-7.62714e-06
-7.62708e-06
-7.62703e-06
-7.62697e-06
-7.62692e-06
-7.62686e-06
-7.62681e-06
-7.62676e-06
-7.62671e-06
-7.62666e-06
-7.6266e-06
-7.62655e-06
-7.6265e-06
-7.62645e-06
-7.62639e-06
-7.62634e-06
-7.62628e-06
-7.62622e-06
-7.62616e-06
-7.6261e-06
-7.62603e-06
-7.62597e-06
-7.6259e-06
-7.62583e-06
-7.62575e-06
-7.62567e-06
-7.62559e-06
-7.62551e-06
-7.62542e-06
-7.62533e-06
-7.62524e-06
-7.62514e-06
-7.62504e-06
-7.62494e-06
-7.62483e-06
-7.62472e-06
-7.62461e-06
-7.62449e-06
-7.62438e-06
-7.62425e-06
-7.62413e-06
-7.624e-06
-7.62387e-06
-7.62374e-06
-7.6236e-06
-7.62346e-06
-7.62332e-06
-7.62318e-06
-7.62303e-06
-7.62289e-06
-7.62273e-06
-7.62258e-06
-7.62243e-06
-7.62227e-06
-7.62211e-06
-7.62195e-06
-7.62178e-06
-7.62162e-06
-7.62145e-06
-7.62128e-06
-7.62111e-06
-7.62093e-06
-7.62076e-06
-7.62058e-06
-7.6204e-06
-7.62022e-06
-7.62004e-06
-7.61986e-06
-7.61968e-06
-7.6195e-06
-7.61931e-06
-7.61913e-06
-7.61895e-06
-7.61876e-06
-7.61858e-06
-7.6184e-06
-7.61821e-06
-7.61803e-06
-7.61785e-06
-7.61767e-06
-7.6175e-06
-7.61732e-06
-7.61714e-06
-7.61696e-06
-7.61679e-06
-7.61662e-06
-7.61644e-06
-7.61627e-06
-7.6161e-06
-7.61593e-06
-7.61576e-06
-7.61559e-06
-7.61541e-06
-7.61524e-06
-7.61507e-06
-7.61489e-06
-7.61471e-06
-7.61453e-06
-7.61434e-06
-7.61415e-06
-7.61396e-06
-7.61376e-06
-7.61356e-06
-7.61335e-06
-7.61313e-06
-7.61291e-06
-7.61268e-06
-7.61244e-06
-7.61219e-06
-7.61193e-06
-7.61167e-06
-7.61139e-06
-7.6111e-06
-7.61081e-06
-7.6105e-06
-7.61018e-06
-7.60985e-06
-7.60951e-06
-7.60917e-06
-7.60881e-06
-7.60844e-06
-7.60806e-06
-7.60768e-06
-7.60728e-06
-7.60688e-06
-7.60648e-06
-7.60606e-06
-7.60565e-06
-7.60522e-06
-7.6048e-06
-7.60438e-06
-7.60395e-06
-7.60352e-06
-7.60309e-06
-7.60267e-06
-7.60224e-06
-7.60182e-06
-7.60141e-06
-7.60099e-06
-7.60059e-06
-7.60018e-06
-7.59979e-06
-7.5994e-06
-7.59901e-06
-7.59864e-06
-7.59827e-06
-7.5979e-06
-7.59755e-06
-7.5972e-06
-7.59686e-06
-7.59653e-06
-7.59621e-06
-7.5959e-06
-7.59559e-06
-7.59529e-06
-7.59501e-06
-7.59473e-06
-7.59446e-06
-7.5942e-06
-7.59395e-06
-7.5937e-06
-7.59347e-06
-7.59324e-06
-7.59301e-06
-7.59279e-06
-7.59258e-06
-7.59237e-06
-7.59215e-06
-7.59194e-06
-7.59172e-06
-7.59149e-06
-7.59125e-06
-7.591e-06
-7.59073e-06
-7.59045e-06
-7.59014e-06
-7.58981e-06
-7.58945e-06
-7.58907e-06
-7.58865e-06
-7.5882e-06
-7.58771e-06
-7.58718e-06
-7.58662e-06
-7.58602e-06
-7.58538e-06
-7.5847e-06
-7.58398e-06
-7.58322e-06
-7.58243e-06
-7.58161e-06
-7.58076e-06
-7.57988e-06
-7.57898e-06
-7.57806e-06
-7.57713e-06
-7.57619e-06
-7.57524e-06
-7.5743e-06
-7.57336e-06
-7.57244e-06
-7.57153e-06
-7.57064e-06
-7.56978e-06
-7.56896e-06
-7.56816e-06
-7.56741e-06
-7.56669e-06
-7.56601e-06
-7.56538e-06
-7.56479e-06
-7.56424e-06
-7.56374e-06
-7.56328e-06
-7.56285e-06
-7.56246e-06
-7.5621e-06
-7.56177e-06
-7.56146e-06
-7.56116e-06
-7.56087e-06
-7.56057e-06
-7.56025e-06
-7.5599e-06
-7.55949e-06
-7.559e-06
-7.55841e-06
-7.5577e-06
-7.55683e-06
-7.55578e-06
-7.55454e-06
-7.5531e-06
-7.55145e-06
-7.5496e-06
-7.54757e-06
-7.54541e-06
-7.54315e-06
-7.54087e-06
-7.53863e-06
-7.53649e-06
-7.53453e-06
-7.53279e-06
-7.5313e-06
-7.53006e-06
-7.529e-06
-7.52802e-06
-7.52697e-06
-7.52563e-06
-7.52373e-06
-7.52097e-06
-7.51707e-06
-7.51175e-06
-7.50481e-06
-7.49611e-06
-7.48564e-06
-7.47347e-06
-7.45972e-06
-7.44439e-06
-7.42706e-06
-7.40631e-06
-7.37886e-06
-7.33901e-06
-7.27891e-06
-7.19014e-06
-7.06459e-06
-6.89106e-06
-6.64583e-06
-6.21995e-06
-4.92834e-06
2.6373e-06
0.000165407
0.000353503
0.000537142
0.000687406
0.000792639
0.000858558
0.000897056
0.000918643
0.00093048
0.000936893
0.000940345
0.000942198
0.00094319
0.000943722
0.000944007
0.00094416
0.000944242
0.000944287
0.000944311
0.000944325
0.000944333
0.000944338
0.000944341
0.000944343
0.000944345
0.000944347
0.000944348
0.000944349
0.000944351
0.000944352
0.000944353
0.000944354
0.000944356
0.000944357
0.000944358
0.000944359
0.00094436
0.000944362
0.000944363
0.000944364
0.000944365
0.000944366
0.000944367
0.000944368
0.000944369
0.00094437
0.000944372
0.000944373
0.000944374
0.000944375
0.000944376
0.000944377
0.000944378
0.000944379
0.00094438
0.000944381
0.000944382
0.000944383
0.000944384
0.000944385
0.000944386
0.000944387
0.000944387
0.000944388
0.000944389
0.00094439
0.000944391
0.000944392
0.000944393
0.000944394
0.000944395
0.000944396
0.000944397
0.000944397
0.000944398
0.000944399
0.0009444
0.000944401
0.000944401
0.000944402
0.000944403
0.000944404
0.000944405
0.000944406
0.000944406
0.000944407
0.000944408
0.000944409
0.000944409
0.00094441
0.000944411
0.000944412
0.000944412
0.000944413
0.000944414
0.000944414
0.000944415
0.000944416
0.000944416
0.000944417
0.000944418
0.000944418
0.000944419
0.00094442
0.00094442
0.000944421
0.000944422
0.000944422
0.000944423
0.000944423
0.000944424
0.000944425
0.000944425
0.000944426
0.000944426
0.000944427
0.000944427
0.000944428
0.000944428
0.000944429
0.000944429
0.00094443
0.00094443
0.000944431
0.000944431
0.000944432
0.000944432
0.000944433
0.000944433
0.000944434
0.000944434
0.000944435
0.000944435
0.000944436
0.000944436
0.000944437
0.000944437
0.000944437
0.000944438
0.000944438
0.000944439
0.000944439
0.000944439
0.00094444
0.00094444
0.000944441
0.000944441
0.000944441
0.000944442
0.000944442
0.000944442
0.000944443
0.000944443
0.000944443
0.000944444
0.000944444
0.000944444
0.000944445
0.000944445
0.000944445
0.000944446
0.000944446
0.000944446
0.000944446
0.000944447
0.000944447
0.000944447
0.000944447
0.000944448
0.000944448
0.000944448
0.000944448
0.000944449
0.000944449
0.000944449
0.000944449
0.000944449
0.00094445
0.00094445
0.00094445
0.00094445
0.00094445
0.000944451
0.000944451
0.000944451
0.000944451
0.000944451
0.000944451
0.000944451
0.000944452
0.000944452
0.000944452
0.000944452
0.000944452
0.000944452
0.000944452
0.000944452
0.000944452
0.000944453
0.000944453
0.000944453
0.000944453
0.000944453
0.000944453
0.000944453
0.000944453
0.000944453
0.000944453
0.000944453
0.000944453
0.000944454
0.000944454
0.000944454
0.000944454
0.000944454
0.000944454
0.000944454
0.000944454
0.000944454
0.000944454
0.000944454
0.000944454
0.000944454
0.000944454
0.000944454
0.000944454
0.000944454
0.000944454
0.000944454
0.000944454
0.000944453
0.000944453
0.000944453
0.000944453
0.000944453
0.000944453
0.000944453
0.000944453
0.000944453
0.000944453
0.000944453
0.000944453
0.000944453
0.000944452
0.000944452
0.000944452
0.000944452
0.000944452
0.000944452
0.000944452
0.000944452
0.000944451
0.000944451
0.000944451
0.000944451
0.000944451
0.000944451
0.00094445
0.00094445
0.00094445
0.00094445
0.00094445
0.00094445
)
;

boundaryField
{
    fixedWall
    {
        type            calculated;
        value           uniform 0;
    }
    outlet
    {
        type            calculated;
        value           uniform 0.000944449;
    }
    defaultFaces
    {
        type            empty;
    }
}


// ************************************************************************* //
