/*--------------------------------*- C++ -*----------------------------------*\
| =========                 |                                                 |
| \\      /  F ield         | OpenFOAM: The Open Source CFD Toolbox           |
|  \\    /   O peration     | Version:  2406                                  |
|   \\  /    A nd           | Website:  www.openfoam.com                      |
|    \\/     M anipulation  |                                                 |
\*---------------------------------------------------------------------------*/
FoamFile
{
    version     2.0;
    format      ascii;
    arch        "LSB;label=32;scalar=64";
    class       volScalarField;
    location    "4.6";
    object      Qdot;
}
// * * * * * * * * * * * * * * * * * * * * * * * * * * * * * * * * * * * * * //

dimensions      [1 -1 -3 0 0 0 0];

internalField   nonuniform List<scalar> 
1000
(
-7.22951e-13
-4.45926e-16
3.0427e-08
1.8545e-07
5.14292e-07
2.57389e-06
9.85976e-06
3.11246e-05
8.35674e-05
0.000196877
0.000416919
0.000808072
0.00145374
0.00245506
0.00392715
0.0059935
0.00877986
0.0124063
0.0169807
0.0225917
0.0293037
0.0371527
0.0461447
0.056254
0.0674253
0.0795758
0.0925986
0.106367
0.120741
0.135569
0.150697
0.165969
0.181237
0.196359
0.211206
0.225661
0.239623
0.253008
0.265748
0.277791
0.289101
0.299656
0.309447
0.318478
0.326761
0.334319
0.341181
0.34738
0.352956
0.357949
0.362404
0.366364
0.369873
0.372974
0.37571
0.37812
0.380244
0.382117
0.383772
0.385241
0.386552
0.387731
0.388802
0.389785
0.3907
0.391562
0.392387
0.393188
0.393975
0.394758
0.395545
0.396343
0.397157
0.397992
0.398851
0.399738
0.400654
0.401601
0.402579
0.40359
0.404633
0.405708
0.406815
0.407953
0.40912
0.410317
0.411541
0.412792
0.414068
0.415368
0.41669
0.418034
0.419398
0.420776
0.422169
0.423587
0.42502
0.426468
0.427929
0.429402
0.430887
0.432383
0.433889
0.435404
0.436928
0.43846
0.44
0.441547
0.443102
0.444662
0.446229
0.447802
0.449381
0.450966
0.452556
0.454151
0.455751
0.457357
0.458968
0.460584
0.462206
0.463832
0.465464
0.467101
0.468744
0.470392
0.472045
0.473705
0.475369
0.47704
0.478717
0.4804
0.482089
0.483785
0.485487
0.487195
0.488911
0.490633
0.492362
0.494099
0.495843
0.497594
0.499353
0.50112
0.502894
0.504677
0.506467
0.508266
0.510073
0.511889
0.513714
0.515547
0.517389
0.519239
0.521095
0.52295
0.52483
0.52672
0.52862
0.530529
0.532447
0.534376
0.536314
0.538262
0.54022
0.542188
0.544167
0.546156
0.548155
0.550165
0.552186
0.554218
0.556261
0.558314
0.560379
0.562455
0.564543
0.566642
0.568752
0.570875
0.573009
0.575154
0.577312
0.579482
0.581663
0.583857
0.586064
0.588282
0.590513
0.592757
0.595014
0.597283
0.599565
0.60186
0.604168
0.606489
0.608823
0.611171
0.613532
0.615907
0.618295
0.620697
0.623112
0.625542
0.627986
0.630443
0.632915
0.635402
0.637902
0.640417
0.642947
0.645491
0.648051
0.650625
0.653214
0.655819
0.658438
0.661073
0.663724
0.66639
0.669072
0.671769
0.674483
0.677213
0.679958
0.682721
0.685499
0.688294
0.691106
0.693935
0.696781
0.699643
0.702523
0.705421
0.708335
0.711268
0.714218
0.717186
0.720172
0.723176
0.726199
0.72924
0.7323
0.735378
0.738475
0.741592
0.744728
0.747883
0.751057
0.754251
0.757465
0.7607
0.763954
0.767228
0.770524
0.773839
0.777176
0.780534
0.783912
0.787313
0.790734
0.794178
0.797643
0.801131
0.80464
0.808173
0.811727
0.815305
0.818906
0.82253
0.826178
0.829849
0.833544
0.837264
0.841007
0.844776
0.848569
0.852387
0.85623
0.860099
0.863994
0.867915
0.871862
0.875835
0.879836
0.883863
0.887918
0.892
0.89611
0.900249
0.904415
0.908611
0.912835
0.917089
0.921373
0.925686
0.930029
0.934402
0.938794
0.943195
0.947661
0.952161
0.956694
0.961259
0.965857
0.970488
0.975152
0.979851
0.984583
0.98935
0.994151
0.998988
1.00386
1.00877
1.01371
1.01869
1.02371
1.02876
1.03385
1.03898
1.04415
1.04936
1.0546
1.05989
1.06521
1.07058
1.07598
1.08143
1.08691
1.09244
1.09801
1.10362
1.10928
1.11497
1.12072
1.1265
1.13233
1.1382
1.14412
1.15009
1.1561
1.16215
1.16826
1.17441
1.18061
1.18685
1.19315
1.19949
1.20589
1.21233
1.21882
1.22537
1.23197
1.23862
1.24532
1.25207
1.25888
1.26575
1.27267
1.27964
1.28667
1.29376
1.30091
1.30811
1.31537
1.32269
1.33008
1.33752
1.34503
1.35259
1.36023
1.36792
1.37568
1.38351
1.3914
1.39936
1.40739
1.41548
1.42365
1.43189
1.4402
1.44858
1.45703
1.46556
1.47417
1.48285
1.49161
1.50045
1.50936
1.51836
1.52744
1.5366
1.54584
1.55517
1.56459
1.57409
1.58369
1.59337
1.60314
1.61294
1.62282
1.63287
1.64301
1.65326
1.66359
1.67403
1.68457
1.69521
1.70595
1.71679
1.72774
1.7388
1.74997
1.76124
1.77263
1.78412
1.79573
1.80746
1.8193
1.83126
1.84334
1.85553
1.86785
1.88029
1.89286
1.90555
1.91837
1.93131
1.94439
1.95759
1.97093
1.98441
1.99802
2.01176
2.02565
2.03968
2.05385
2.06816
2.08262
2.09722
2.11198
2.12688
2.14194
2.15716
2.17253
2.18804
2.20361
2.21947
2.23549
2.25169
2.26806
2.28461
2.30133
2.31824
2.33533
2.35261
2.37007
2.38773
2.40559
2.42365
2.44191
2.46037
2.47905
2.49794
2.51704
2.53637
2.55592
2.5757
2.59571
2.61596
2.63645
2.65718
2.67816
2.69939
2.72088
2.74263
2.76465
2.78693
2.80949
2.83232
2.85544
2.87885
2.90255
2.92654
2.95084
2.97544
3.00034
3.0255
3.05085
3.07672
3.10294
3.1295
3.1564
3.18364
3.21124
3.2392
3.26751
3.2962
3.32527
3.35471
3.38455
3.41478
3.44541
3.47646
3.50792
3.53981
3.57213
3.60489
3.6381
3.67178
3.70591
3.74053
3.77563
3.81122
3.84731
3.88392
3.92105
3.95872
3.99691
4.03551
4.07453
4.1144
4.15487
4.19593
4.2376
4.27989
4.3228
4.36636
4.41058
4.45547
4.50104
4.5473
4.59428
4.64198
4.69043
4.73963
4.7896
4.84036
4.89193
4.94432
4.99755
5.05164
5.10661
5.16248
5.21928
5.27702
5.33572
5.39542
5.45611
5.51745
5.57975
5.64355
5.70846
5.7745
5.84169
5.91007
5.97966
6.0505
6.12262
6.19605
6.27082
6.34697
6.42453
6.50354
6.58403
6.66604
6.74961
6.83478
6.92159
7.01008
7.1003
7.19228
7.28608
7.38173
7.4793
7.57882
7.68034
7.78392
7.88962
7.99747
8.10755
8.2199
8.33459
8.45168
8.57124
8.69332
8.81801
8.94537
9.07541
9.20744
9.34219
9.48084
9.62259
9.76747
9.91557
10.067
10.2218
10.3802
10.5422
10.708
10.8777
11.0513
11.2291
11.4111
11.5976
11.7885
11.9842
12.1847
12.3903
12.601
12.817
13.0387
13.266
13.4993
13.7388
13.9846
14.237
14.4963
14.7626
15.0363
15.3177
15.607
15.9046
16.2108
16.5258
16.8502
17.1841
17.5267
17.8786
18.2437
18.6203
19.0088
19.4097
19.8235
20.2508
20.6922
21.1483
21.6198
22.1074
22.6117
23.1337
23.674
24.2335
24.8131
25.4138
26.0365
26.6824
27.3524
28.0478
28.7697
29.5196
30.2988
31.1088
31.9511
32.8274
33.7395
34.6893
35.6788
36.7095
37.7774
38.8908
40.0607
41.2834
42.5613
43.8978
45.2965
46.7617
48.2976
49.909
51.6011
53.3796
55.2505
57.2204
59.2967
61.4872
63.8006
66.2464
68.835
71.5779
74.4878
77.5787
80.866
84.3661
88.0908
92.0494
96.31
100.876
105.776
111.041
116.707
122.816
129.413
136.55
144.283
152.677
161.806
171.752
182.611
194.494
207.53
221.869
237.689
255.202
274.656
296.324
320.545
347.989
378.994
414.428
455.136
502.185
556.91
620.982
696.514
786.21
893.579
1023.26
1181.5
1376.89
1621.5
1932.71
2336.28
2871.59
3600.72
4624.68
6113.42
8365.88
11944.3
18012.4
29277.4
52787
108476
257556
727974
2.4522e+06
9.6385e+06
2.85291e+07
353791
1224.41
7.73373
0.183255
0.016282
0.00385616
0.0017044
0.00108622
0.000850277
0.000745064
0.000693985
0.000667993
0.000654549
0.000647476
0.00064367
0.000641714
0.000640629
0.000640088
0.000639837
0.000639667
0.000639578
0.000639535
0.000639514
0.000639432
0.000639507
0.00063951
0.000639515
0.000639519
0.000639526
0.000639532
0.000639538
0.000639544
0.000639551
0.000639557
0.000639564
0.000639572
0.000639578
0.000639586
0.000639517
0.000639598
0.000639604
0.000639537
0.000639616
0.000639624
0.000639631
0.000639639
0.000639644
0.000639652
0.000639659
0.000639665
0.000639598
0.000639679
0.000639686
0.000639695
0.0006397
0.00063971
0.000639716
0.000639725
0.000639732
0.000639663
0.000639744
0.000639678
0.000639759
0.000639765
0.000639772
0.000639705
0.000639786
0.000639791
0.000639798
0.000639804
0.000639736
0.000639817
0.000639825
0.000639836
0.000639765
0.000639775
0.000639782
0.000639863
0.00063987
0.000639876
0.000639883
0.000639889
0.00063982
0.000639828
0.000639835
0.00063984
0.000639846
0.00063978
0.000639861
0.000639867
0.000639873
0.000639882
0.000639887
0.000639895
0.000639901
0.000639907
0.000639915
0.000639922
0.000639928
0.000639934
0.000639942
0.000639947
0.000639955
0.000639962
0.000639968
0.000639973
0.000639984
0.00063999
0.000639997
0.000640004
0.000640011
0.000640016
0.000640026
0.000640031
0.000640039
0.000640045
0.000640055
0.000640062
0.000640068
0.000640075
0.000640081
0.000640091
0.000640098
0.000640104
0.000640109
0.000640118
0.000640124
0.00064013
0.000640139
0.000640144
0.000640154
0.000640161
0.00064017
0.000640176
0.000640182
0.00064019
0.000640196
0.000640202
0.000640136
0.000640217
0.000640222
0.000640229
0.000640237
0.000640243
0.00064025
0.000640255
0.000640263
0.000640269
0.000640276
0.000640281
0.000640286
0.000640296
0.000640301
0.000640307
0.000640315
0.000640322
0.000640327
0.000640334
0.000640342
0.000640348
0.000640357
0.000640361
0.00064037
0.000640378
0.000640387
0.000640321
0.000640403
0.000640408
0.000640416
0.000640422
0.000640429
0.000640436
0.000640443
0.000640451
0.000640457
0.000640466
0.000640474
0.000640478
0.000640485
0.000640494
0.000640499
0.000640508
0.000640514
0.000640522
0.000640529
0.000640537
0.000640544
0.000640552
0.000640559
0.000640566
0.000640573
0.00064058
0.000640587
0.000640593
0.000640526
0.000640532
0.000640539
0.000640546
0.000640551
0.000640556
0.000640563
0.00064057
0.000640575
0.000640585
0.000640591
0.000640597
0.000640605
0.000640612
0.000640618
0.000640625
0.000640631
0.000640637
0.000640644
0.000640653
0.000640658
0.000640665
0.000640673
0.000640678
0.000640687
0.000640695
0.000640702
0.000640707
0.000640714
0.000640721
0.000640727
0.000640735
0.000640741
0.000640748
0.000640754
0.000640762
0.000640768
0.000640776
0.000640783
0.00064079
0.000640797
0.000640803
0.000640809
0.000640815
0.000640822
0.000640831
0.000640838
0.000640845
0.000640852
0.000640858
0.000640867
0.000640872
0.000640878
0.000640885
0.000640892
0.000640899
0.000640907
0.000640914
0.00064092
0.000640927
0.000640934
0.000640942
0.000640949
0.000640955
0.000640964
0.000640971
0.000640976
0.000640983
0.000640991
)
;

boundaryField
{
    fixedWall
    {
        type            calculated;
        value           uniform 0;
    }
    outlet
    {
        type            calculated;
        value           uniform 0;
    }
    defaultFaces
    {
        type            empty;
    }
}


// ************************************************************************* //
