/*--------------------------------*- C++ -*----------------------------------*\
| =========                 |                                                 |
| \\      /  F ield         | OpenFOAM: The Open Source CFD Toolbox           |
|  \\    /   O peration     | Version:  2406                                  |
|   \\  /    A nd           | Website:  www.openfoam.com                      |
|    \\/     M anipulation  |                                                 |
\*---------------------------------------------------------------------------*/
FoamFile
{
    version     2.0;
    format      ascii;
    arch        "LSB;label=32;scalar=64";
    class       volVectorField;
    location    "4.6";
    object      U;
}
// * * * * * * * * * * * * * * * * * * * * * * * * * * * * * * * * * * * * * //

dimensions      [0 1 -1 0 0 0 0];

internalField   nonuniform List<vector> 
1000
(
(-3.29278e-06 0 0)
(-1.56897e-05 0 0)
(-3.90073e-05 0 0)
(-6.93528e-05 0 0)
(-0.000104743 0 0)
(-0.00014402 0 0)
(-0.000186373 0 0)
(-0.000231163 0 0)
(-0.00027788 0 0)
(-0.000326113 0 0)
(-0.00037553 0 0)
(-0.000425856 0 0)
(-0.00047686 0 0)
(-0.000528345 0 0)
(-0.000580146 0 0)
(-0.000632115 0 0)
(-0.000684128 0 0)
(-0.000736071 0 0)
(-0.000787849 0 0)
(-0.000839374 0 0)
(-0.000890568 0 0)
(-0.000941362 0 0)
(-0.000991694 0 0)
(-0.00104151 0 0)
(-0.00109076 0 0)
(-0.00113939 0 0)
(-0.00118738 0 0)
(-0.00123467 0 0)
(-0.00128125 0 0)
(-0.00132708 0 0)
(-0.00137213 0 0)
(-0.00141638 0 0)
(-0.00145982 0 0)
(-0.00150243 0 0)
(-0.00154418 0 0)
(-0.00158507 0 0)
(-0.00162509 0 0)
(-0.00166423 0 0)
(-0.00170248 0 0)
(-0.00173984 0 0)
(-0.0017763 0 0)
(-0.00181186 0 0)
(-0.00184653 0 0)
(-0.00188029 0 0)
(-0.00191317 0 0)
(-0.00194515 0 0)
(-0.00197624 0 0)
(-0.00200645 0 0)
(-0.00203579 0 0)
(-0.00206426 0 0)
(-0.00209187 0 0)
(-0.00211863 0 0)
(-0.00214455 0 0)
(-0.00216965 0 0)
(-0.00219393 0 0)
(-0.0022174 0 0)
(-0.00224008 0 0)
(-0.00226199 0 0)
(-0.00228313 0 0)
(-0.00230352 0 0)
(-0.00232318 0 0)
(-0.00234212 0 0)
(-0.00236035 0 0)
(-0.00237789 0 0)
(-0.00239476 0 0)
(-0.00241097 0 0)
(-0.00242654 0 0)
(-0.00244149 0 0)
(-0.00245582 0 0)
(-0.00246957 0 0)
(-0.00248273 0 0)
(-0.00249534 0 0)
(-0.00250741 0 0)
(-0.00251894 0 0)
(-0.00252997 0 0)
(-0.0025405 0 0)
(-0.00255056 0 0)
(-0.00256015 0 0)
(-0.00256929 0 0)
(-0.002578 0 0)
(-0.0025863 0 0)
(-0.0025942 0 0)
(-0.0026017 0 0)
(-0.00260884 0 0)
(-0.00261562 0 0)
(-0.00262205 0 0)
(-0.00262816 0 0)
(-0.00263395 0 0)
(-0.00263943 0 0)
(-0.00264463 0 0)
(-0.00264954 0 0)
(-0.00265418 0 0)
(-0.00265854 0 0)
(-0.00266267 0 0)
(-0.0026666 0 0)
(-0.00267031 0 0)
(-0.0026738 0 0)
(-0.00267711 0 0)
(-0.00268018 0 0)
(-0.00268311 0 0)
(-0.00268585 0 0)
(-0.00268844 0 0)
(-0.00269088 0 0)
(-0.00269315 0 0)
(-0.00269529 0 0)
(-0.0026973 0 0)
(-0.00269919 0 0)
(-0.00270095 0 0)
(-0.00270262 0 0)
(-0.00270416 0 0)
(-0.00270562 0 0)
(-0.00270698 0 0)
(-0.00270825 0 0)
(-0.00270945 0 0)
(-0.00271056 0 0)
(-0.0027116 0 0)
(-0.00271258 0 0)
(-0.00271349 0 0)
(-0.00271434 0 0)
(-0.00271514 0 0)
(-0.00271588 0 0)
(-0.00271657 0 0)
(-0.00271722 0 0)
(-0.00271783 0 0)
(-0.0027184 0 0)
(-0.00271893 0 0)
(-0.00271943 0 0)
(-0.00271989 0 0)
(-0.00272033 0 0)
(-0.00272074 0 0)
(-0.00272112 0 0)
(-0.00272148 0 0)
(-0.00272182 0 0)
(-0.00272214 0 0)
(-0.00272244 0 0)
(-0.00272272 0 0)
(-0.00272299 0 0)
(-0.00272324 0 0)
(-0.00272348 0 0)
(-0.0027237 0 0)
(-0.00272392 0 0)
(-0.00272413 0 0)
(-0.00272432 0 0)
(-0.00272451 0 0)
(-0.00272469 0 0)
(-0.00272486 0 0)
(-0.00272503 0 0)
(-0.00272519 0 0)
(-0.00272534 0 0)
(-0.00272549 0 0)
(-0.00272564 0 0)
(-0.00272578 0 0)
(-0.00272591 0 0)
(-0.00272605 0 0)
(-0.00272618 0 0)
(-0.00272631 0 0)
(-0.00272643 0 0)
(-0.00272656 0 0)
(-0.00272668 0 0)
(-0.0027268 0 0)
(-0.00272692 0 0)
(-0.00272703 0 0)
(-0.00272715 0 0)
(-0.00272726 0 0)
(-0.00272737 0 0)
(-0.00272749 0 0)
(-0.0027276 0 0)
(-0.00272771 0 0)
(-0.00272782 0 0)
(-0.00272793 0 0)
(-0.00272804 0 0)
(-0.00272814 0 0)
(-0.00272825 0 0)
(-0.00272836 0 0)
(-0.00272846 0 0)
(-0.00272857 0 0)
(-0.00272868 0 0)
(-0.00272878 0 0)
(-0.00272889 0 0)
(-0.00272899 0 0)
(-0.0027291 0 0)
(-0.0027292 0 0)
(-0.0027293 0 0)
(-0.00272941 0 0)
(-0.00272951 0 0)
(-0.00272961 0 0)
(-0.00272972 0 0)
(-0.00272982 0 0)
(-0.00272992 0 0)
(-0.00273002 0 0)
(-0.00273012 0 0)
(-0.00273022 0 0)
(-0.00273033 0 0)
(-0.00273043 0 0)
(-0.00273053 0 0)
(-0.00273063 0 0)
(-0.00273073 0 0)
(-0.00273082 0 0)
(-0.00273092 0 0)
(-0.00273102 0 0)
(-0.00273112 0 0)
(-0.00273122 0 0)
(-0.00273131 0 0)
(-0.00273141 0 0)
(-0.00273151 0 0)
(-0.0027316 0 0)
(-0.0027317 0 0)
(-0.00273179 0 0)
(-0.00273189 0 0)
(-0.00273198 0 0)
(-0.00273208 0 0)
(-0.00273217 0 0)
(-0.00273226 0 0)
(-0.00273235 0 0)
(-0.00273245 0 0)
(-0.00273254 0 0)
(-0.00273263 0 0)
(-0.00273272 0 0)
(-0.00273281 0 0)
(-0.0027329 0 0)
(-0.00273299 0 0)
(-0.00273308 0 0)
(-0.00273316 0 0)
(-0.00273325 0 0)
(-0.00273334 0 0)
(-0.00273342 0 0)
(-0.00273351 0 0)
(-0.0027336 0 0)
(-0.00273368 0 0)
(-0.00273377 0 0)
(-0.00273385 0 0)
(-0.00273394 0 0)
(-0.00273402 0 0)
(-0.0027341 0 0)
(-0.00273418 0 0)
(-0.00273427 0 0)
(-0.00273435 0 0)
(-0.00273443 0 0)
(-0.00273451 0 0)
(-0.00273459 0 0)
(-0.00273467 0 0)
(-0.00273475 0 0)
(-0.00273482 0 0)
(-0.0027349 0 0)
(-0.00273498 0 0)
(-0.00273506 0 0)
(-0.00273513 0 0)
(-0.00273521 0 0)
(-0.00273528 0 0)
(-0.00273536 0 0)
(-0.00273543 0 0)
(-0.00273551 0 0)
(-0.00273558 0 0)
(-0.00273565 0 0)
(-0.00273573 0 0)
(-0.0027358 0 0)
(-0.00273587 0 0)
(-0.00273594 0 0)
(-0.00273601 0 0)
(-0.00273608 0 0)
(-0.00273615 0 0)
(-0.00273622 0 0)
(-0.00273629 0 0)
(-0.00273636 0 0)
(-0.00273643 0 0)
(-0.0027365 0 0)
(-0.00273656 0 0)
(-0.00273663 0 0)
(-0.0027367 0 0)
(-0.00273676 0 0)
(-0.00273683 0 0)
(-0.0027369 0 0)
(-0.00273696 0 0)
(-0.00273703 0 0)
(-0.00273709 0 0)
(-0.00273715 0 0)
(-0.00273722 0 0)
(-0.00273728 0 0)
(-0.00273734 0 0)
(-0.00273741 0 0)
(-0.00273747 0 0)
(-0.00273753 0 0)
(-0.00273759 0 0)
(-0.00273765 0 0)
(-0.00273771 0 0)
(-0.00273777 0 0)
(-0.00273783 0 0)
(-0.00273789 0 0)
(-0.00273795 0 0)
(-0.00273801 0 0)
(-0.00273807 0 0)
(-0.00273813 0 0)
(-0.00273819 0 0)
(-0.00273825 0 0)
(-0.0027383 0 0)
(-0.00273836 0 0)
(-0.00273842 0 0)
(-0.00273848 0 0)
(-0.00273853 0 0)
(-0.00273859 0 0)
(-0.00273865 0 0)
(-0.0027387 0 0)
(-0.00273876 0 0)
(-0.00273881 0 0)
(-0.00273887 0 0)
(-0.00273892 0 0)
(-0.00273897 0 0)
(-0.00273903 0 0)
(-0.00273908 0 0)
(-0.00273914 0 0)
(-0.00273919 0 0)
(-0.00273924 0 0)
(-0.00273929 0 0)
(-0.00273935 0 0)
(-0.0027394 0 0)
(-0.00273945 0 0)
(-0.0027395 0 0)
(-0.00273955 0 0)
(-0.0027396 0 0)
(-0.00273965 0 0)
(-0.0027397 0 0)
(-0.00273975 0 0)
(-0.0027398 0 0)
(-0.00273984 0 0)
(-0.00273989 0 0)
(-0.00273994 0 0)
(-0.00273999 0 0)
(-0.00274003 0 0)
(-0.00274008 0 0)
(-0.00274013 0 0)
(-0.00274017 0 0)
(-0.00274022 0 0)
(-0.00274026 0 0)
(-0.0027403 0 0)
(-0.00274035 0 0)
(-0.00274039 0 0)
(-0.00274043 0 0)
(-0.00274047 0 0)
(-0.00274052 0 0)
(-0.00274056 0 0)
(-0.0027406 0 0)
(-0.00274064 0 0)
(-0.00274068 0 0)
(-0.00274072 0 0)
(-0.00274076 0 0)
(-0.0027408 0 0)
(-0.00274084 0 0)
(-0.00274087 0 0)
(-0.00274091 0 0)
(-0.00274095 0 0)
(-0.00274099 0 0)
(-0.00274102 0 0)
(-0.00274106 0 0)
(-0.00274109 0 0)
(-0.00274113 0 0)
(-0.00274117 0 0)
(-0.0027412 0 0)
(-0.00274124 0 0)
(-0.00274127 0 0)
(-0.0027413 0 0)
(-0.00274134 0 0)
(-0.00274137 0 0)
(-0.00274141 0 0)
(-0.00274144 0 0)
(-0.00274147 0 0)
(-0.0027415 0 0)
(-0.00274154 0 0)
(-0.00274157 0 0)
(-0.0027416 0 0)
(-0.00274163 0 0)
(-0.00274167 0 0)
(-0.0027417 0 0)
(-0.00274173 0 0)
(-0.00274176 0 0)
(-0.00274179 0 0)
(-0.00274182 0 0)
(-0.00274186 0 0)
(-0.00274189 0 0)
(-0.00274192 0 0)
(-0.00274195 0 0)
(-0.00274198 0 0)
(-0.00274201 0 0)
(-0.00274204 0 0)
(-0.00274207 0 0)
(-0.0027421 0 0)
(-0.00274213 0 0)
(-0.00274216 0 0)
(-0.00274219 0 0)
(-0.00274222 0 0)
(-0.00274225 0 0)
(-0.00274228 0 0)
(-0.00274231 0 0)
(-0.00274234 0 0)
(-0.00274237 0 0)
(-0.0027424 0 0)
(-0.00274243 0 0)
(-0.00274246 0 0)
(-0.00274249 0 0)
(-0.00274251 0 0)
(-0.00274254 0 0)
(-0.00274257 0 0)
(-0.0027426 0 0)
(-0.00274262 0 0)
(-0.00274265 0 0)
(-0.00274267 0 0)
(-0.0027427 0 0)
(-0.00274272 0 0)
(-0.00274275 0 0)
(-0.00274277 0 0)
(-0.00274279 0 0)
(-0.00274281 0 0)
(-0.00274283 0 0)
(-0.00274285 0 0)
(-0.00274287 0 0)
(-0.00274289 0 0)
(-0.0027429 0 0)
(-0.00274292 0 0)
(-0.00274293 0 0)
(-0.00274295 0 0)
(-0.00274296 0 0)
(-0.00274297 0 0)
(-0.00274298 0 0)
(-0.00274298 0 0)
(-0.00274299 0 0)
(-0.002743 0 0)
(-0.002743 0 0)
(-0.002743 0 0)
(-0.002743 0 0)
(-0.002743 0 0)
(-0.002743 0 0)
(-0.002743 0 0)
(-0.00274299 0 0)
(-0.00274299 0 0)
(-0.00274298 0 0)
(-0.00274297 0 0)
(-0.00274296 0 0)
(-0.00274295 0 0)
(-0.00274294 0 0)
(-0.00274292 0 0)
(-0.00274291 0 0)
(-0.00274289 0 0)
(-0.00274287 0 0)
(-0.00274286 0 0)
(-0.00274284 0 0)
(-0.00274282 0 0)
(-0.0027428 0 0)
(-0.00274278 0 0)
(-0.00274276 0 0)
(-0.00274274 0 0)
(-0.00274271 0 0)
(-0.00274269 0 0)
(-0.00274267 0 0)
(-0.00274265 0 0)
(-0.00274263 0 0)
(-0.0027426 0 0)
(-0.00274258 0 0)
(-0.00274256 0 0)
(-0.00274254 0 0)
(-0.00274252 0 0)
(-0.00274249 0 0)
(-0.00274247 0 0)
(-0.00274245 0 0)
(-0.00274243 0 0)
(-0.00274241 0 0)
(-0.00274239 0 0)
(-0.00274237 0 0)
(-0.00274235 0 0)
(-0.00274234 0 0)
(-0.00274232 0 0)
(-0.0027423 0 0)
(-0.00274228 0 0)
(-0.00274226 0 0)
(-0.00274225 0 0)
(-0.00274223 0 0)
(-0.00274221 0 0)
(-0.0027422 0 0)
(-0.00274218 0 0)
(-0.00274216 0 0)
(-0.00274214 0 0)
(-0.00274213 0 0)
(-0.00274211 0 0)
(-0.00274209 0 0)
(-0.00274207 0 0)
(-0.00274205 0 0)
(-0.00274203 0 0)
(-0.00274201 0 0)
(-0.00274198 0 0)
(-0.00274196 0 0)
(-0.00274194 0 0)
(-0.00274191 0 0)
(-0.00274188 0 0)
(-0.00274186 0 0)
(-0.00274183 0 0)
(-0.0027418 0 0)
(-0.00274177 0 0)
(-0.00274173 0 0)
(-0.0027417 0 0)
(-0.00274167 0 0)
(-0.00274163 0 0)
(-0.00274159 0 0)
(-0.00274155 0 0)
(-0.00274152 0 0)
(-0.00274147 0 0)
(-0.00274143 0 0)
(-0.00274139 0 0)
(-0.00274135 0 0)
(-0.0027413 0 0)
(-0.00274126 0 0)
(-0.00274121 0 0)
(-0.00274116 0 0)
(-0.00274111 0 0)
(-0.00274106 0 0)
(-0.00274101 0 0)
(-0.00274096 0 0)
(-0.00274091 0 0)
(-0.00274085 0 0)
(-0.0027408 0 0)
(-0.00274075 0 0)
(-0.00274069 0 0)
(-0.00274063 0 0)
(-0.00274058 0 0)
(-0.00274052 0 0)
(-0.00274046 0 0)
(-0.0027404 0 0)
(-0.00274034 0 0)
(-0.00274028 0 0)
(-0.00274022 0 0)
(-0.00274016 0 0)
(-0.0027401 0 0)
(-0.00274003 0 0)
(-0.00273997 0 0)
(-0.00273991 0 0)
(-0.00273984 0 0)
(-0.00273978 0 0)
(-0.00273971 0 0)
(-0.00273965 0 0)
(-0.00273958 0 0)
(-0.00273952 0 0)
(-0.00273945 0 0)
(-0.00273939 0 0)
(-0.00273932 0 0)
(-0.00273926 0 0)
(-0.00273919 0 0)
(-0.00273913 0 0)
(-0.00273906 0 0)
(-0.002739 0 0)
(-0.00273893 0 0)
(-0.00273887 0 0)
(-0.00273881 0 0)
(-0.00273874 0 0)
(-0.00273868 0 0)
(-0.00273862 0 0)
(-0.00273856 0 0)
(-0.00273849 0 0)
(-0.00273843 0 0)
(-0.00273837 0 0)
(-0.00273831 0 0)
(-0.00273824 0 0)
(-0.00273818 0 0)
(-0.00273812 0 0)
(-0.00273805 0 0)
(-0.00273799 0 0)
(-0.00273792 0 0)
(-0.00273785 0 0)
(-0.00273778 0 0)
(-0.00273771 0 0)
(-0.00273764 0 0)
(-0.00273757 0 0)
(-0.00273749 0 0)
(-0.00273741 0 0)
(-0.00273733 0 0)
(-0.00273725 0 0)
(-0.00273717 0 0)
(-0.00273708 0 0)
(-0.00273699 0 0)
(-0.00273689 0 0)
(-0.00273679 0 0)
(-0.00273669 0 0)
(-0.00273659 0 0)
(-0.00273648 0 0)
(-0.00273637 0 0)
(-0.00273625 0 0)
(-0.00273613 0 0)
(-0.00273601 0 0)
(-0.00273588 0 0)
(-0.00273575 0 0)
(-0.00273562 0 0)
(-0.00273549 0 0)
(-0.00273535 0 0)
(-0.00273521 0 0)
(-0.00273506 0 0)
(-0.00273492 0 0)
(-0.00273477 0 0)
(-0.00273463 0 0)
(-0.00273448 0 0)
(-0.00273433 0 0)
(-0.00273418 0 0)
(-0.00273403 0 0)
(-0.00273388 0 0)
(-0.00273373 0 0)
(-0.00273358 0 0)
(-0.00273343 0 0)
(-0.00273329 0 0)
(-0.00273314 0 0)
(-0.002733 0 0)
(-0.00273286 0 0)
(-0.00273272 0 0)
(-0.00273258 0 0)
(-0.00273245 0 0)
(-0.00273231 0 0)
(-0.00273218 0 0)
(-0.00273206 0 0)
(-0.00273193 0 0)
(-0.00273181 0 0)
(-0.00273169 0 0)
(-0.00273158 0 0)
(-0.00273146 0 0)
(-0.00273135 0 0)
(-0.00273124 0 0)
(-0.00273114 0 0)
(-0.00273103 0 0)
(-0.00273093 0 0)
(-0.00273084 0 0)
(-0.00273074 0 0)
(-0.00273065 0 0)
(-0.00273056 0 0)
(-0.00273047 0 0)
(-0.00273039 0 0)
(-0.0027303 0 0)
(-0.00273022 0 0)
(-0.00273014 0 0)
(-0.00273006 0 0)
(-0.00272998 0 0)
(-0.0027299 0 0)
(-0.00272982 0 0)
(-0.00272973 0 0)
(-0.00272965 0 0)
(-0.00272955 0 0)
(-0.00272946 0 0)
(-0.00272936 0 0)
(-0.00272925 0 0)
(-0.00272913 0 0)
(-0.002729 0 0)
(-0.00272887 0 0)
(-0.00272872 0 0)
(-0.00272857 0 0)
(-0.0027284 0 0)
(-0.00272822 0 0)
(-0.00272802 0 0)
(-0.00272781 0 0)
(-0.00272759 0 0)
(-0.00272736 0 0)
(-0.00272711 0 0)
(-0.00272685 0 0)
(-0.00272658 0 0)
(-0.00272629 0 0)
(-0.00272599 0 0)
(-0.00272569 0 0)
(-0.00272537 0 0)
(-0.00272506 0 0)
(-0.00272473 0 0)
(-0.00272439 0 0)
(-0.00272406 0 0)
(-0.00272373 0 0)
(-0.0027234 0 0)
(-0.00272306 0 0)
(-0.00272274 0 0)
(-0.00272242 0 0)
(-0.00272211 0 0)
(-0.0027218 0 0)
(-0.00272152 0 0)
(-0.00272124 0 0)
(-0.00272097 0 0)
(-0.00272072 0 0)
(-0.00272049 0 0)
(-0.00272027 0 0)
(-0.00272006 0 0)
(-0.00271987 0 0)
(-0.00271969 0 0)
(-0.00271953 0 0)
(-0.00271938 0 0)
(-0.00271924 0 0)
(-0.00271911 0 0)
(-0.00271899 0 0)
(-0.00271888 0 0)
(-0.00271877 0 0)
(-0.00271866 0 0)
(-0.00271855 0 0)
(-0.00271843 0 0)
(-0.0027183 0 0)
(-0.00271815 0 0)
(-0.00271797 0 0)
(-0.00271776 0 0)
(-0.00271751 0 0)
(-0.00271721 0 0)
(-0.00271684 0 0)
(-0.00271641 0 0)
(-0.00271591 0 0)
(-0.00271532 0 0)
(-0.00271471 0 0)
(-0.00271398 0 0)
(-0.00271317 0 0)
(-0.00271223 0 0)
(-0.00271155 0 0)
(-0.00271083 0 0)
(-0.00270988 0 0)
(-0.0027092 0 0)
(-0.00270851 0 0)
(-0.00270793 0 0)
(-0.00270745 0 0)
(-0.00270697 0 0)
(-0.00270677 0 0)
(-0.00270622 0 0)
(-0.00270579 0 0)
(-0.00270501 0 0)
(-0.00270447 0 0)
(-0.0027032 0 0)
(-0.00270135 0 0)
(-0.00269932 0 0)
(-0.00269619 0 0)
(-0.00269287 0 0)
(-0.00268869 0 0)
(-0.00268403 0 0)
(-0.00267884 0 0)
(-0.00267315 0 0)
(-0.00266657 0 0)
(-0.00265817 0 0)
(-0.0026465 0 0)
(-0.00262753 0 0)
(-0.00260489 0 0)
(-0.00253147 0 0)
(-0.00246151 0 0)
(-0.00255574 0 0)
(-0.0026431 0 0)
(-0.0047753 0 0)
(-0.00401597 0 0)
(0.0199192 0 0)
(0.0583172 0 0)
(0.0839581 0 0)
(0.0968019 0 0)
(0.103012 0 0)
(0.105906 0 0)
(0.107215 0 0)
(0.107876 0 0)
(0.108144 0 0)
(0.108379 0 0)
(0.108441 0 0)
(0.108478 0 0)
(0.108475 0 0)
(0.108555 0 0)
(0.108542 0 0)
(0.108496 0 0)
(0.108544 0 0)
(0.108564 0 0)
(0.108506 0 0)
(0.108537 0 0)
(0.108516 0 0)
(0.108581 0 0)
(0.108548 0 0)
(0.108483 0 0)
(0.108567 0 0)
(0.108562 0 0)
(0.108507 0 0)
(0.108537 0 0)
(0.108535 0 0)
(0.108558 0 0)
(0.108533 0 0)
(0.108545 0 0)
(0.108521 0 0)
(0.108522 0 0)
(0.108562 0 0)
(0.10855 0 0)
(0.108537 0 0)
(0.108502 0 0)
(0.108575 0 0)
(0.108521 0 0)
(0.108547 0 0)
(0.108559 0 0)
(0.108502 0 0)
(0.108555 0 0)
(0.108539 0 0)
(0.108548 0 0)
(0.108559 0 0)
(0.108488 0 0)
(0.108578 0 0)
(0.108566 0 0)
(0.108474 0 0)
(0.108586 0 0)
(0.108541 0 0)
(0.108555 0 0)
(0.108505 0 0)
(0.108537 0 0)
(0.108589 0 0)
(0.10848 0 0)
(0.108581 0 0)
(0.108563 0 0)
(0.108503 0 0)
(0.108554 0 0)
(0.108571 0 0)
(0.108482 0 0)
(0.108591 0 0)
(0.108551 0 0)
(0.10849 0 0)
(0.108602 0 0)
(0.108536 0 0)
(0.108493 0 0)
(0.108585 0 0)
(0.108562 0 0)
(0.108493 0 0)
(0.108556 0 0)
(0.108588 0 0)
(0.108503 0 0)
(0.10854 0 0)
(0.108559 0 0)
(0.108548 0 0)
(0.108551 0 0)
(0.108523 0 0)
(0.108559 0 0)
(0.108534 0 0)
(0.108541 0 0)
(0.10858 0 0)
(0.108533 0 0)
(0.10851 0 0)
(0.10856 0 0)
(0.108582 0 0)
(0.108507 0 0)
(0.108548 0 0)
(0.108555 0 0)
(0.108546 0 0)
(0.108562 0 0)
(0.108504 0 0)
(0.108568 0 0)
(0.108576 0 0)
(0.108496 0 0)
(0.108587 0 0)
(0.108522 0 0)
(0.108559 0 0)
(0.108551 0 0)
(0.108524 0 0)
(0.108562 0 0)
(0.108551 0 0)
(0.108571 0 0)
(0.108505 0 0)
(0.108553 0 0)
(0.108588 0 0)
(0.108513 0 0)
(0.108549 0 0)
(0.108537 0 0)
(0.108582 0 0)
(0.108556 0 0)
(0.10848 0 0)
(0.108608 0 0)
(0.108545 0 0)
(0.108552 0 0)
(0.108515 0 0)
(0.108558 0 0)
(0.108579 0 0)
(0.108503 0 0)
(0.108568 0 0)
(0.108578 0 0)
(0.108539 0 0)
(0.108511 0 0)
(0.108566 0 0)
(0.108557 0 0)
(0.108562 0 0)
(0.108523 0 0)
(0.108539 0 0)
(0.108603 0 0)
(0.108544 0 0)
(0.108484 0 0)
(0.10858 0 0)
(0.108583 0 0)
(0.108489 0 0)
(0.108586 0 0)
(0.108581 0 0)
(0.108539 0 0)
(0.108481 0 0)
(0.108599 0 0)
(0.108583 0 0)
(0.108473 0 0)
(0.108612 0 0)
(0.108567 0 0)
(0.108483 0 0)
(0.10859 0 0)
(0.108572 0 0)
(0.108543 0 0)
(0.108501 0 0)
(0.108567 0 0)
(0.108593 0 0)
(0.108498 0 0)
(0.108586 0 0)
(0.108516 0 0)
(0.108591 0 0)
(0.108562 0 0)
(0.108486 0 0)
(0.108603 0 0)
(0.108564 0 0)
(0.108508 0 0)
(0.108578 0 0)
(0.108528 0 0)
(0.108583 0 0)
(0.108558 0 0)
(0.108498 0 0)
(0.108605 0 0)
(0.10854 0 0)
(0.108559 0 0)
(0.108528 0 0)
(0.10855 0 0)
(0.108591 0 0)
(0.108545 0 0)
(0.108515 0 0)
(0.108559 0 0)
(0.1086 0 0)
(0.108493 0 0)
(0.108576 0 0)
(0.108583 0 0)
(0.108496 0 0)
(0.1086 0 0)
(0.108543 0 0)
(0.108509 0 0)
(0.108597 0 0)
(0.108574 0 0)
(0.10849 0 0)
(0.108585 0 0)
(0.108576 0 0)
(0.108505 0 0)
(0.108593 0 0)
(0.108537 0 0)
(0.108544 0 0)
(0.108573 0 0)
(0.108549 0 0)
(0.108536 0 0)
(0.108576 0 0)
(0.10855 0 0)
(0.108516 0 0)
(0.108588 0 0)
(0.108579 0 0)
(0.108507 0 0)
(0.108553 0 0)
(0.108605 0 0)
(0.108487 0 0)
(0.108574 0 0)
(0.108598 0 0)
(0.108487 0 0)
(0.108597 0 0)
(0.108568 0 0)
(0.108485 0 0)
(0.108612 0 0)
(0.108573 0 0)
(0.108477 0 0)
(0.108598 0 0)
(0.10858 0 0)
(0.108498 0 0)
(0.108599 0 0)
(0.10855 0 0)
(0.108505 0 0)
(0.108596 0 0)
(0.108576 0 0)
(0.108506 0 0)
(0.108555 0 0)
(0.108607 0 0)
(0.108508 0 0)
(0.108556 0 0)
(0.108571 0 0)
(0.10854 0 0)
(0.108565 0 0)
(0.108537 0 0)
(0.10857 0 0)
(0.108573 0 0)
(0.108508 0 0)
(0.108562 0 0)
(0.10861 0 0)
(0.10849 0 0)
(0.108556 0 0)
(0.108609 0 0)
(0.108507 0 0)
(0.108553 0 0)
(0.108591 0 0)
(0.108517 0 0)
(0.108556 0 0)
(0.108571 0 0)
(0.108554 0 0)
(0.108526 0 0)
(0.108587 0 0)
(0.108564 0 0)
(0.1085 0 0)
(0.108606 0 0)
(0.108542 0 0)
(0.108552 0 0)
(0.10855 0 0)
(0.108536 0 0)
(0.108591 0 0)
(0.108519 0 0)
(0.108586 0 0)
(0.108534 0 0)
(0.10856 0 0)
(0.108552 0 0)
(0.10854 0 0)
(0.108566 0 0)
(0.108548 0 0)
)
;

boundaryField
{
    fixedWall
    {
        type            fixedValue;
        value           uniform (0 0 0);
    }
    outlet
    {
        type            pressureInletOutletVelocity;
        value           uniform (0.108548 0 0);
    }
    defaultFaces
    {
        type            empty;
    }
}


// ************************************************************************* //
