/*--------------------------------*- C++ -*----------------------------------*\
| =========                 |                                                 |
| \\      /  F ield         | OpenFOAM: The Open Source CFD Toolbox           |
|  \\    /   O peration     | Version:  2406                                  |
|   \\  /    A nd           | Website:  www.openfoam.com                      |
|    \\/     M anipulation  |                                                 |
\*---------------------------------------------------------------------------*/
FoamFile
{
    version     2.0;
    format      ascii;
    arch        "LSB;label=32;scalar=64";
    class       volScalarField;
    location    "8.1";
    object      O2;
}
// * * * * * * * * * * * * * * * * * * * * * * * * * * * * * * * * * * * * * //

dimensions      [0 0 0 0 0 0 0];

internalField   nonuniform List<scalar> 
1000
(
1.25302e-06
1.25061e-06
1.24629e-06
1.24037e-06
1.23312e-06
1.22472e-06
1.21531e-06
1.20502e-06
1.19394e-06
1.18216e-06
1.16976e-06
1.1568e-06
1.14334e-06
1.12942e-06
1.1151e-06
1.10041e-06
1.0854e-06
1.07009e-06
1.05453e-06
1.03874e-06
1.02275e-06
1.00659e-06
9.90283e-07
9.73862e-07
9.57346e-07
9.4076e-07
9.24127e-07
9.07469e-07
8.90808e-07
8.74166e-07
8.57563e-07
8.4102e-07
8.24556e-07
8.08192e-07
7.91945e-07
7.75834e-07
7.59877e-07
7.4409e-07
7.2849e-07
7.13092e-07
6.97909e-07
6.82957e-07
6.68247e-07
6.53792e-07
6.39602e-07
6.25686e-07
6.12054e-07
5.98713e-07
5.85671e-07
5.72932e-07
5.60502e-07
5.48385e-07
5.36583e-07
5.25099e-07
5.13933e-07
5.03087e-07
4.9256e-07
4.8235e-07
4.72457e-07
4.62877e-07
4.53608e-07
4.44647e-07
4.35988e-07
4.27629e-07
4.19563e-07
4.11786e-07
4.04293e-07
3.97077e-07
3.90133e-07
3.83455e-07
3.77036e-07
3.70869e-07
3.64949e-07
3.59269e-07
3.53821e-07
3.48599e-07
3.43597e-07
3.38808e-07
3.34226e-07
3.29842e-07
3.25652e-07
3.21649e-07
3.17826e-07
3.14177e-07
3.10696e-07
3.07377e-07
3.04214e-07
3.01201e-07
2.98333e-07
2.95604e-07
2.93009e-07
2.90543e-07
2.882e-07
2.85976e-07
2.83865e-07
2.81864e-07
2.79968e-07
2.78172e-07
2.76473e-07
2.74865e-07
2.73346e-07
2.71911e-07
2.70558e-07
2.69281e-07
2.68078e-07
2.66946e-07
2.65882e-07
2.64881e-07
2.63943e-07
2.63063e-07
2.62239e-07
2.61469e-07
2.6075e-07
2.60079e-07
2.59455e-07
2.58875e-07
2.58337e-07
2.57839e-07
2.57379e-07
2.56956e-07
2.56567e-07
2.56211e-07
2.55886e-07
2.55592e-07
2.55325e-07
2.55085e-07
2.54871e-07
2.54681e-07
2.54514e-07
2.54369e-07
2.54245e-07
2.54141e-07
2.54055e-07
2.53987e-07
2.53936e-07
2.53901e-07
2.53881e-07
2.53875e-07
2.53883e-07
2.53904e-07
2.53937e-07
2.53982e-07
2.54038e-07
2.54104e-07
2.54179e-07
2.54265e-07
2.54358e-07
2.54461e-07
2.54571e-07
2.54689e-07
2.54814e-07
2.54945e-07
2.55083e-07
2.55227e-07
2.55376e-07
2.55531e-07
2.55691e-07
2.55855e-07
2.56025e-07
2.56198e-07
2.56376e-07
2.56557e-07
2.56742e-07
2.56931e-07
2.57123e-07
2.57318e-07
2.57515e-07
2.57716e-07
2.57919e-07
2.58125e-07
2.58333e-07
2.58543e-07
2.58756e-07
2.5897e-07
2.59187e-07
2.59405e-07
2.59625e-07
2.59846e-07
2.6007e-07
2.60294e-07
2.6052e-07
2.60748e-07
2.60977e-07
2.61207e-07
2.61438e-07
2.6167e-07
2.61904e-07
2.62138e-07
2.62374e-07
2.6261e-07
2.62847e-07
2.63086e-07
2.63325e-07
2.63565e-07
2.63806e-07
2.64047e-07
2.6429e-07
2.64533e-07
2.64777e-07
2.65021e-07
2.65266e-07
2.65512e-07
2.65759e-07
2.66006e-07
2.66253e-07
2.66502e-07
2.66751e-07
2.67e-07
2.67248e-07
2.67499e-07
2.6775e-07
2.68002e-07
2.68255e-07
2.68508e-07
2.68761e-07
2.69015e-07
2.69269e-07
2.69524e-07
2.6978e-07
2.70036e-07
2.70292e-07
2.70549e-07
2.70806e-07
2.71064e-07
2.71322e-07
2.71581e-07
2.7184e-07
2.721e-07
2.7236e-07
2.7262e-07
2.72881e-07
2.73143e-07
2.73405e-07
2.73667e-07
2.7393e-07
2.74193e-07
2.74457e-07
2.74721e-07
2.74986e-07
2.75251e-07
2.75516e-07
2.75782e-07
2.76049e-07
2.76315e-07
2.76583e-07
2.7685e-07
2.77119e-07
2.77387e-07
2.77656e-07
2.77926e-07
2.78196e-07
2.78466e-07
2.78737e-07
2.79008e-07
2.7928e-07
2.79552e-07
2.79825e-07
2.80098e-07
2.80371e-07
2.80645e-07
2.8092e-07
2.81195e-07
2.8147e-07
2.81746e-07
2.82022e-07
2.82299e-07
2.82576e-07
2.82853e-07
2.83131e-07
2.8341e-07
2.83689e-07
2.83968e-07
2.84248e-07
2.84528e-07
2.84809e-07
2.85091e-07
2.85372e-07
2.85655e-07
2.85937e-07
2.8622e-07
2.86504e-07
2.86788e-07
2.87073e-07
2.87358e-07
2.87644e-07
2.8793e-07
2.88216e-07
2.88503e-07
2.88791e-07
2.89079e-07
2.89367e-07
2.89656e-07
2.89946e-07
2.90236e-07
2.90526e-07
2.90817e-07
2.91109e-07
2.91401e-07
2.91693e-07
2.91984e-07
2.92277e-07
2.92571e-07
2.92866e-07
2.93161e-07
2.93457e-07
2.93753e-07
2.9405e-07
2.94347e-07
2.94645e-07
2.94943e-07
2.95242e-07
2.95542e-07
2.95842e-07
2.96142e-07
2.96443e-07
2.96745e-07
2.97047e-07
2.9735e-07
2.97653e-07
2.97957e-07
2.98261e-07
2.98566e-07
2.98872e-07
2.99178e-07
2.99485e-07
2.99792e-07
3.001e-07
3.00408e-07
3.00717e-07
3.01027e-07
3.01337e-07
3.01648e-07
3.01959e-07
3.02271e-07
3.02584e-07
3.02897e-07
3.03211e-07
3.03526e-07
3.03841e-07
3.04156e-07
3.04473e-07
3.0479e-07
3.05107e-07
3.05426e-07
3.05745e-07
3.06064e-07
3.06384e-07
3.06705e-07
3.07027e-07
3.07349e-07
3.07672e-07
3.07996e-07
3.0832e-07
3.08645e-07
3.0897e-07
3.09297e-07
3.09624e-07
3.09951e-07
3.1028e-07
3.10609e-07
3.10939e-07
3.11269e-07
3.116e-07
3.11932e-07
3.12265e-07
3.12599e-07
3.12933e-07
3.13268e-07
3.13603e-07
3.1394e-07
3.14277e-07
3.14615e-07
3.14953e-07
3.15293e-07
3.15633e-07
3.15974e-07
3.16316e-07
3.16658e-07
3.17002e-07
3.17346e-07
3.1769e-07
3.18036e-07
3.18383e-07
3.1873e-07
3.19078e-07
3.19427e-07
3.19776e-07
3.20127e-07
3.20478e-07
3.2083e-07
3.21183e-07
3.21536e-07
3.21891e-07
3.22246e-07
3.22602e-07
3.22959e-07
3.23317e-07
3.23675e-07
3.24035e-07
3.24395e-07
3.24756e-07
3.25118e-07
3.25481e-07
3.25844e-07
3.26209e-07
3.26574e-07
3.2694e-07
3.27307e-07
3.27674e-07
3.28043e-07
3.28412e-07
3.28783e-07
3.29154e-07
3.29526e-07
3.29898e-07
3.30272e-07
3.30646e-07
3.31022e-07
3.31398e-07
3.31775e-07
3.32153e-07
3.32531e-07
3.32911e-07
3.33292e-07
3.33674e-07
3.34054e-07
3.34436e-07
3.34821e-07
3.35206e-07
3.3559e-07
3.35977e-07
3.36365e-07
3.36753e-07
3.37142e-07
3.37532e-07
3.37922e-07
3.38314e-07
3.38706e-07
3.391e-07
3.39494e-07
3.39889e-07
3.40285e-07
3.40683e-07
3.4108e-07
3.41479e-07
3.41879e-07
3.4228e-07
3.42681e-07
3.43084e-07
3.43487e-07
3.43892e-07
3.44297e-07
3.44703e-07
3.4511e-07
3.45518e-07
3.45927e-07
3.46337e-07
3.46748e-07
3.4716e-07
3.47573e-07
3.47987e-07
3.48402e-07
3.48818e-07
3.49234e-07
3.49652e-07
3.50071e-07
3.50491e-07
3.50911e-07
3.51333e-07
3.51756e-07
3.5218e-07
3.52604e-07
3.5303e-07
3.53457e-07
3.53885e-07
3.54314e-07
3.54744e-07
3.55175e-07
3.55607e-07
3.5604e-07
3.56474e-07
3.56909e-07
3.57346e-07
3.57783e-07
3.58221e-07
3.58661e-07
3.59101e-07
3.59543e-07
3.59986e-07
3.6043e-07
3.60875e-07
3.61321e-07
3.61768e-07
3.62217e-07
3.62666e-07
3.63117e-07
3.63568e-07
3.64021e-07
3.64475e-07
3.64931e-07
3.65387e-07
3.65844e-07
3.66303e-07
3.66763e-07
3.67224e-07
3.67686e-07
3.68149e-07
3.68614e-07
3.6908e-07
3.69547e-07
3.70013e-07
3.70479e-07
3.70949e-07
3.71421e-07
3.71894e-07
3.72369e-07
3.72844e-07
3.73321e-07
3.73799e-07
3.74278e-07
3.74758e-07
3.7524e-07
3.75723e-07
3.76207e-07
3.76693e-07
3.77179e-07
3.77667e-07
3.78157e-07
3.78647e-07
3.79139e-07
3.79632e-07
3.80127e-07
3.80622e-07
3.81119e-07
3.81618e-07
3.82117e-07
3.82618e-07
3.83121e-07
3.83624e-07
3.84129e-07
3.84635e-07
3.85143e-07
3.85652e-07
3.86162e-07
3.86674e-07
3.87187e-07
3.87701e-07
3.88217e-07
3.88734e-07
3.89253e-07
3.89773e-07
3.90294e-07
3.90817e-07
3.91341e-07
3.91866e-07
3.92393e-07
3.92919e-07
3.93445e-07
3.93976e-07
3.94508e-07
3.95042e-07
3.95577e-07
3.96113e-07
3.96651e-07
3.9719e-07
3.97731e-07
3.98273e-07
3.98817e-07
3.99362e-07
3.99908e-07
4.00456e-07
4.01006e-07
4.01557e-07
4.02109e-07
4.02663e-07
4.03218e-07
4.03775e-07
4.04333e-07
4.04893e-07
4.05454e-07
4.06017e-07
4.06582e-07
4.07148e-07
4.07715e-07
4.08284e-07
4.08855e-07
4.09427e-07
4.1e-07
4.10576e-07
4.11153e-07
4.11731e-07
4.12311e-07
4.12893e-07
4.13476e-07
4.14061e-07
4.14648e-07
4.15236e-07
4.15826e-07
4.16418e-07
4.17011e-07
4.17606e-07
4.18203e-07
4.18801e-07
4.19401e-07
4.20003e-07
4.20607e-07
4.21212e-07
4.21819e-07
4.22428e-07
4.23039e-07
4.23651e-07
4.24266e-07
4.24882e-07
4.255e-07
4.26119e-07
4.26741e-07
4.27364e-07
4.2799e-07
4.28617e-07
4.29246e-07
4.29876e-07
4.30509e-07
4.31144e-07
4.3178e-07
4.32419e-07
4.33059e-07
4.33701e-07
4.34346e-07
4.34991e-07
4.35635e-07
4.36285e-07
4.36937e-07
4.37591e-07
4.38247e-07
4.38905e-07
4.39565e-07
4.40227e-07
4.40892e-07
4.41558e-07
4.42226e-07
4.42896e-07
4.43569e-07
4.44243e-07
4.4492e-07
4.45599e-07
4.46279e-07
4.46962e-07
4.47647e-07
4.48334e-07
4.49024e-07
4.49715e-07
4.50409e-07
4.51105e-07
4.51803e-07
4.52503e-07
4.53205e-07
4.5391e-07
4.54617e-07
4.55326e-07
4.56037e-07
4.5675e-07
4.57466e-07
4.58184e-07
4.58905e-07
4.59628e-07
4.60353e-07
4.6108e-07
4.6181e-07
4.62542e-07
4.63276e-07
4.64013e-07
4.64752e-07
4.65493e-07
4.66237e-07
4.66983e-07
4.67732e-07
4.68483e-07
4.69236e-07
4.69992e-07
4.70751e-07
4.71511e-07
4.72275e-07
4.7304e-07
4.73808e-07
4.74579e-07
4.75352e-07
4.76128e-07
4.76906e-07
4.77686e-07
4.78469e-07
4.79255e-07
4.80043e-07
4.80834e-07
4.81627e-07
4.82422e-07
4.83219e-07
4.84015e-07
4.84817e-07
4.85623e-07
4.86431e-07
4.87242e-07
4.88055e-07
4.88871e-07
4.89689e-07
4.9051e-07
4.91334e-07
4.9216e-07
4.92989e-07
4.93821e-07
4.94655e-07
4.95492e-07
4.96332e-07
4.97174e-07
4.98019e-07
4.98867e-07
4.99718e-07
5.00571e-07
5.01427e-07
5.02286e-07
5.03147e-07
5.04012e-07
5.04879e-07
5.05749e-07
5.06623e-07
5.07499e-07
5.08377e-07
5.09259e-07
5.10144e-07
5.11032e-07
5.11923e-07
5.12817e-07
5.13714e-07
5.14614e-07
5.15517e-07
5.16424e-07
5.17333e-07
5.18246e-07
5.19162e-07
5.20081e-07
5.21004e-07
5.2193e-07
5.22859e-07
5.23792e-07
5.24728e-07
5.25668e-07
5.26611e-07
5.27557e-07
5.28507e-07
5.29461e-07
5.30418e-07
5.31379e-07
5.32343e-07
5.33312e-07
5.34283e-07
5.35259e-07
5.36238e-07
5.37221e-07
5.38208e-07
5.39198e-07
5.40186e-07
5.41185e-07
5.42187e-07
5.43193e-07
5.44204e-07
5.45218e-07
5.46236e-07
5.47259e-07
5.48285e-07
5.49316e-07
5.50351e-07
5.51389e-07
5.52432e-07
5.5348e-07
5.54531e-07
5.55586e-07
5.56646e-07
5.5771e-07
5.58778e-07
5.59851e-07
5.60928e-07
5.62009e-07
5.63094e-07
5.64183e-07
5.65277e-07
5.66376e-07
5.67478e-07
5.68585e-07
5.69696e-07
5.70812e-07
5.71932e-07
5.73057e-07
5.74186e-07
5.75319e-07
5.76456e-07
5.77599e-07
5.78745e-07
5.79896e-07
5.81052e-07
5.82212e-07
5.83376e-07
5.84545e-07
5.85719e-07
5.86897e-07
5.8808e-07
5.89267e-07
5.90459e-07
5.91655e-07
5.92856e-07
5.94062e-07
5.95272e-07
5.96487e-07
5.97707e-07
5.98931e-07
6.0016e-07
6.01394e-07
6.02633e-07
6.03877e-07
6.05125e-07
6.06378e-07
6.07637e-07
6.089e-07
6.10168e-07
6.11441e-07
6.12719e-07
6.14003e-07
6.15291e-07
6.16585e-07
6.17884e-07
6.19184e-07
6.20486e-07
6.21802e-07
6.23123e-07
6.2445e-07
6.25782e-07
6.27119e-07
6.28462e-07
6.29811e-07
6.31165e-07
6.32526e-07
6.33892e-07
6.35264e-07
6.36642e-07
6.38027e-07
6.39416e-07
6.40804e-07
6.42206e-07
6.43614e-07
6.45028e-07
6.46448e-07
6.47874e-07
6.49307e-07
6.50744e-07
6.52181e-07
6.53632e-07
6.55089e-07
6.56553e-07
6.58023e-07
6.59501e-07
6.60985e-07
6.62476e-07
6.63975e-07
6.6548e-07
6.66992e-07
6.68512e-07
6.70039e-07
6.71573e-07
6.73115e-07
6.74664e-07
6.76221e-07
6.77785e-07
6.79358e-07
6.80939e-07
6.82527e-07
6.84124e-07
6.8573e-07
6.87344e-07
6.88968e-07
6.906e-07
6.92243e-07
6.93894e-07
6.95557e-07
6.97229e-07
6.98913e-07
7.00608e-07
7.02316e-07
7.04036e-07
7.05769e-07
7.07517e-07
7.0928e-07
7.11059e-07
7.12856e-07
7.1467e-07
7.16505e-07
7.18362e-07
7.20241e-07
7.22146e-07
7.24079e-07
7.26041e-07
7.28036e-07
7.30067e-07
7.32137e-07
7.34251e-07
7.36411e-07
7.38624e-07
7.40894e-07
7.43226e-07
7.45628e-07
7.48107e-07
7.50669e-07
7.53325e-07
7.56083e-07
7.58953e-07
7.61948e-07
7.6508e-07
7.68362e-07
7.7181e-07
7.75441e-07
7.79272e-07
7.83324e-07
7.87617e-07
7.92176e-07
7.97025e-07
8.02193e-07
8.07709e-07
8.13607e-07
8.1992e-07
8.26688e-07
8.3395e-07
8.41751e-07
8.50137e-07
8.5916e-07
8.68873e-07
8.79334e-07
8.90604e-07
9.02749e-07
9.15837e-07
9.29942e-07
9.4514e-07
9.61513e-07
9.79145e-07
9.98125e-07
1.01854e-06
1.0405e-06
1.06408e-06
1.0894e-06
1.11655e-06
1.14564e-06
1.17676e-06
1.21003e-06
1.24552e-06
1.28335e-06
1.32359e-06
1.36633e-06
1.41162e-06
1.45953e-06
1.51009e-06
1.56331e-06
1.61918e-06
1.67766e-06
1.73868e-06
1.80211e-06
1.86781e-06
1.93556e-06
2.00509e-06
2.07608e-06
2.14814e-06
2.2208e-06
2.29352e-06
2.36569e-06
2.43663e-06
2.50558e-06
2.57168e-06
2.63406e-06
2.69174e-06
2.74373e-06
2.78899e-06
2.82645e-06
2.85506e-06
2.87377e-06
2.8814e-06
2.87732e-06
2.86048e-06
2.83005e-06
2.78529e-06
2.7256e-06
2.65044e-06
2.55945e-06
2.45237e-06
2.32909e-06
2.18967e-06
2.03434e-06
1.86356e-06
1.67801e-06
1.47868e-06
1.26691e-06
1.04451e-06
8.13849e-07
5.78114e-07
3.41515e-07
1.09678e-07
)
;

boundaryField
{
    fixedWall
    {
        type            zeroGradient;
    }
    outlet
    {
        type            inletOutlet;
        inletValue      uniform 0;
        value           uniform 0;
    }
    defaultFaces
    {
        type            empty;
    }
}


// ************************************************************************* //
