/*--------------------------------*- C++ -*----------------------------------*\
| =========                 |                                                 |
| \\      /  F ield         | OpenFOAM: The Open Source CFD Toolbox           |
|  \\    /   O peration     | Version:  2406                                  |
|   \\  /    A nd           | Website:  www.openfoam.com                      |
|    \\/     M anipulation  |                                                 |
\*---------------------------------------------------------------------------*/
FoamFile
{
    version     2.0;
    format      ascii;
    arch        "LSB;label=32;scalar=64";
    class       volVectorField;
    location    "8.1";
    object      U;
}
// * * * * * * * * * * * * * * * * * * * * * * * * * * * * * * * * * * * * * //

dimensions      [0 1 -1 0 0 0 0];

internalField   nonuniform List<vector> 
1000
(
(-1.40501e-06 0 0)
(-6.52299e-06 0 0)
(-1.64398e-05 0 0)
(-2.99459e-05 0 0)
(-4.61402e-05 0 0)
(-6.4489e-05 0 0)
(-8.46275e-05 0 0)
(-0.000106264 0 0)
(-0.000129157 0 0)
(-0.000153104 0 0)
(-0.00017794 0 0)
(-0.000203524 0 0)
(-0.000229737 0 0)
(-0.000256475 0 0)
(-0.000283649 0 0)
(-0.000311182 0 0)
(-0.000339004 0 0)
(-0.000367054 0 0)
(-0.000395277 0 0)
(-0.000423625 0 0)
(-0.000452054 0 0)
(-0.000480525 0 0)
(-0.000509001 0 0)
(-0.00053745 0 0)
(-0.000565841 0 0)
(-0.000594148 0 0)
(-0.000622345 0 0)
(-0.000650409 0 0)
(-0.000678318 0 0)
(-0.000706054 0 0)
(-0.000733598 0 0)
(-0.000760933 0 0)
(-0.000788044 0 0)
(-0.000814916 0 0)
(-0.000841537 0 0)
(-0.000867895 0 0)
(-0.000893978 0 0)
(-0.000919775 0 0)
(-0.000945277 0 0)
(-0.000970476 0 0)
(-0.000995364 0 0)
(-0.00101993 0 0)
(-0.00104418 0 0)
(-0.00106809 0 0)
(-0.00109167 0 0)
(-0.0011149 0 0)
(-0.00113779 0 0)
(-0.00116032 0 0)
(-0.00118251 0 0)
(-0.00120433 0 0)
(-0.0012258 0 0)
(-0.00124691 0 0)
(-0.00126766 0 0)
(-0.00128804 0 0)
(-0.00130805 0 0)
(-0.0013277 0 0)
(-0.00134699 0 0)
(-0.00136591 0 0)
(-0.00138446 0 0)
(-0.00140265 0 0)
(-0.00142048 0 0)
(-0.00143794 0 0)
(-0.00145504 0 0)
(-0.00147178 0 0)
(-0.00148817 0 0)
(-0.0015042 0 0)
(-0.00151988 0 0)
(-0.00153521 0 0)
(-0.00155019 0 0)
(-0.00156482 0 0)
(-0.00157912 0 0)
(-0.00159307 0 0)
(-0.00160669 0 0)
(-0.00161999 0 0)
(-0.00163295 0 0)
(-0.00164559 0 0)
(-0.00165791 0 0)
(-0.00166992 0 0)
(-0.00168161 0 0)
(-0.001693 0 0)
(-0.00170408 0 0)
(-0.00171487 0 0)
(-0.00172537 0 0)
(-0.00173557 0 0)
(-0.00174549 0 0)
(-0.00175513 0 0)
(-0.0017645 0 0)
(-0.0017736 0 0)
(-0.00178243 0 0)
(-0.001791 0 0)
(-0.00179932 0 0)
(-0.00180739 0 0)
(-0.00181521 0 0)
(-0.00182279 0 0)
(-0.00183013 0 0)
(-0.00183725 0 0)
(-0.00184413 0 0)
(-0.0018508 0 0)
(-0.00185725 0 0)
(-0.0018635 0 0)
(-0.00186953 0 0)
(-0.00187537 0 0)
(-0.001881 0 0)
(-0.00188645 0 0)
(-0.00189171 0 0)
(-0.00189679 0 0)
(-0.00190169 0 0)
(-0.00190641 0 0)
(-0.00191097 0 0)
(-0.00191537 0 0)
(-0.0019196 0 0)
(-0.00192368 0 0)
(-0.00192761 0 0)
(-0.0019314 0 0)
(-0.00193504 0 0)
(-0.00193854 0 0)
(-0.00194191 0 0)
(-0.00194515 0 0)
(-0.00194826 0 0)
(-0.00195126 0 0)
(-0.00195413 0 0)
(-0.00195689 0 0)
(-0.00195954 0 0)
(-0.00196208 0 0)
(-0.00196451 0 0)
(-0.00196685 0 0)
(-0.00196909 0 0)
(-0.00197124 0 0)
(-0.0019733 0 0)
(-0.00197527 0 0)
(-0.00197715 0 0)
(-0.00197896 0 0)
(-0.00198067 0 0)
(-0.00198231 0 0)
(-0.00198388 0 0)
(-0.00198539 0 0)
(-0.00198683 0 0)
(-0.0019882 0 0)
(-0.00198951 0 0)
(-0.00199077 0 0)
(-0.00199196 0 0)
(-0.0019931 0 0)
(-0.00199418 0 0)
(-0.00199522 0 0)
(-0.0019962 0 0)
(-0.00199714 0 0)
(-0.00199804 0 0)
(-0.00199889 0 0)
(-0.00199969 0 0)
(-0.00200046 0 0)
(-0.00200119 0 0)
(-0.00200189 0 0)
(-0.00200255 0 0)
(-0.00200317 0 0)
(-0.00200377 0 0)
(-0.00200433 0 0)
(-0.00200487 0 0)
(-0.00200538 0 0)
(-0.00200586 0 0)
(-0.00200632 0 0)
(-0.00200675 0 0)
(-0.00200716 0 0)
(-0.00200755 0 0)
(-0.00200791 0 0)
(-0.00200826 0 0)
(-0.00200859 0 0)
(-0.0020089 0 0)
(-0.00200919 0 0)
(-0.00200947 0 0)
(-0.00200973 0 0)
(-0.00200998 0 0)
(-0.00201021 0 0)
(-0.00201043 0 0)
(-0.00201064 0 0)
(-0.00201084 0 0)
(-0.00201102 0 0)
(-0.00201119 0 0)
(-0.00201136 0 0)
(-0.00201151 0 0)
(-0.00201166 0 0)
(-0.00201179 0 0)
(-0.00201192 0 0)
(-0.00201204 0 0)
(-0.00201215 0 0)
(-0.00201226 0 0)
(-0.00201236 0 0)
(-0.00201246 0 0)
(-0.00201254 0 0)
(-0.00201263 0 0)
(-0.0020127 0 0)
(-0.00201278 0 0)
(-0.00201284 0 0)
(-0.00201291 0 0)
(-0.00201297 0 0)
(-0.00201302 0 0)
(-0.00201308 0 0)
(-0.00201312 0 0)
(-0.00201317 0 0)
(-0.00201321 0 0)
(-0.00201325 0 0)
(-0.00201329 0 0)
(-0.00201332 0 0)
(-0.00201336 0 0)
(-0.00201338 0 0)
(-0.00201341 0 0)
(-0.00201344 0 0)
(-0.00201346 0 0)
(-0.00201349 0 0)
(-0.00201351 0 0)
(-0.00201353 0 0)
(-0.00201354 0 0)
(-0.00201356 0 0)
(-0.00201357 0 0)
(-0.00201359 0 0)
(-0.0020136 0 0)
(-0.00201361 0 0)
(-0.00201362 0 0)
(-0.00201363 0 0)
(-0.00201364 0 0)
(-0.00201365 0 0)
(-0.00201366 0 0)
(-0.00201366 0 0)
(-0.00201367 0 0)
(-0.00201368 0 0)
(-0.00201368 0 0)
(-0.00201369 0 0)
(-0.00201369 0 0)
(-0.00201369 0 0)
(-0.0020137 0 0)
(-0.0020137 0 0)
(-0.0020137 0 0)
(-0.0020137 0 0)
(-0.00201371 0 0)
(-0.00201371 0 0)
(-0.00201371 0 0)
(-0.00201371 0 0)
(-0.00201371 0 0)
(-0.0020137 0 0)
(-0.00201371 0 0)
(-0.0020137 0 0)
(-0.0020137 0 0)
(-0.00201371 0 0)
(-0.0020137 0 0)
(-0.0020137 0 0)
(-0.00201369 0 0)
(-0.0020137 0 0)
(-0.00201369 0 0)
(-0.0020137 0 0)
(-0.00201369 0 0)
(-0.00201369 0 0)
(-0.00201369 0 0)
(-0.00201368 0 0)
(-0.00201368 0 0)
(-0.00201368 0 0)
(-0.00201368 0 0)
(-0.00201367 0 0)
(-0.00201367 0 0)
(-0.00201366 0 0)
(-0.00201366 0 0)
(-0.00201366 0 0)
(-0.00201365 0 0)
(-0.00201365 0 0)
(-0.00201365 0 0)
(-0.00201364 0 0)
(-0.00201364 0 0)
(-0.00201364 0 0)
(-0.00201363 0 0)
(-0.00201363 0 0)
(-0.00201363 0 0)
(-0.00201362 0 0)
(-0.00201362 0 0)
(-0.00201361 0 0)
(-0.00201361 0 0)
(-0.0020136 0 0)
(-0.0020136 0 0)
(-0.0020136 0 0)
(-0.00201359 0 0)
(-0.00201359 0 0)
(-0.00201358 0 0)
(-0.00201358 0 0)
(-0.00201358 0 0)
(-0.00201358 0 0)
(-0.00201356 0 0)
(-0.00201357 0 0)
(-0.00201356 0 0)
(-0.00201355 0 0)
(-0.00201356 0 0)
(-0.00201355 0 0)
(-0.00201355 0 0)
(-0.00201354 0 0)
(-0.00201353 0 0)
(-0.00201354 0 0)
(-0.00201353 0 0)
(-0.00201353 0 0)
(-0.00201352 0 0)
(-0.00201351 0 0)
(-0.00201352 0 0)
(-0.00201351 0 0)
(-0.00201351 0 0)
(-0.00201351 0 0)
(-0.0020135 0 0)
(-0.0020135 0 0)
(-0.0020135 0 0)
(-0.00201349 0 0)
(-0.00201349 0 0)
(-0.00201349 0 0)
(-0.00201348 0 0)
(-0.00201348 0 0)
(-0.00201347 0 0)
(-0.00201347 0 0)
(-0.00201347 0 0)
(-0.00201346 0 0)
(-0.00201346 0 0)
(-0.00201346 0 0)
(-0.00201345 0 0)
(-0.00201346 0 0)
(-0.00201344 0 0)
(-0.00201345 0 0)
(-0.00201344 0 0)
(-0.00201344 0 0)
(-0.00201344 0 0)
(-0.00201343 0 0)
(-0.00201344 0 0)
(-0.00201343 0 0)
(-0.00201343 0 0)
(-0.00201342 0 0)
(-0.00201343 0 0)
(-0.00201342 0 0)
(-0.00201342 0 0)
(-0.00201342 0 0)
(-0.00201341 0 0)
(-0.00201342 0 0)
(-0.00201341 0 0)
(-0.00201341 0 0)
(-0.00201341 0 0)
(-0.00201341 0 0)
(-0.00201341 0 0)
(-0.00201341 0 0)
(-0.0020134 0 0)
(-0.00201341 0 0)
(-0.0020134 0 0)
(-0.00201341 0 0)
(-0.0020134 0 0)
(-0.0020134 0 0)
(-0.00201341 0 0)
(-0.0020134 0 0)
(-0.0020134 0 0)
(-0.0020134 0 0)
(-0.0020134 0 0)
(-0.0020134 0 0)
(-0.0020134 0 0)
(-0.0020134 0 0)
(-0.0020134 0 0)
(-0.0020134 0 0)
(-0.0020134 0 0)
(-0.0020134 0 0)
(-0.0020134 0 0)
(-0.0020134 0 0)
(-0.0020134 0 0)
(-0.0020134 0 0)
(-0.0020134 0 0)
(-0.00201341 0 0)
(-0.0020134 0 0)
(-0.00201341 0 0)
(-0.00201341 0 0)
(-0.00201341 0 0)
(-0.00201341 0 0)
(-0.00201341 0 0)
(-0.00201341 0 0)
(-0.00201341 0 0)
(-0.00201341 0 0)
(-0.00201341 0 0)
(-0.00201341 0 0)
(-0.00201341 0 0)
(-0.00201342 0 0)
(-0.00201342 0 0)
(-0.00201342 0 0)
(-0.00201342 0 0)
(-0.00201342 0 0)
(-0.00201342 0 0)
(-0.00201343 0 0)
(-0.00201343 0 0)
(-0.00201343 0 0)
(-0.00201343 0 0)
(-0.00201343 0 0)
(-0.00201343 0 0)
(-0.00201344 0 0)
(-0.00201344 0 0)
(-0.00201344 0 0)
(-0.00201344 0 0)
(-0.00201344 0 0)
(-0.00201344 0 0)
(-0.00201344 0 0)
(-0.00201344 0 0)
(-0.00201345 0 0)
(-0.00201344 0 0)
(-0.00201345 0 0)
(-0.00201345 0 0)
(-0.00201345 0 0)
(-0.00201345 0 0)
(-0.00201345 0 0)
(-0.00201345 0 0)
(-0.00201346 0 0)
(-0.00201346 0 0)
(-0.00201346 0 0)
(-0.00201346 0 0)
(-0.00201346 0 0)
(-0.00201346 0 0)
(-0.00201346 0 0)
(-0.00201346 0 0)
(-0.00201346 0 0)
(-0.00201346 0 0)
(-0.00201346 0 0)
(-0.00201346 0 0)
(-0.00201346 0 0)
(-0.00201346 0 0)
(-0.00201347 0 0)
(-0.00201346 0 0)
(-0.00201347 0 0)
(-0.00201346 0 0)
(-0.00201346 0 0)
(-0.00201347 0 0)
(-0.00201347 0 0)
(-0.00201346 0 0)
(-0.00201346 0 0)
(-0.00201347 0 0)
(-0.00201346 0 0)
(-0.00201347 0 0)
(-0.00201346 0 0)
(-0.00201346 0 0)
(-0.00201346 0 0)
(-0.00201346 0 0)
(-0.00201346 0 0)
(-0.00201346 0 0)
(-0.00201346 0 0)
(-0.00201346 0 0)
(-0.00201346 0 0)
(-0.00201346 0 0)
(-0.00201345 0 0)
(-0.00201346 0 0)
(-0.00201346 0 0)
(-0.00201345 0 0)
(-0.00201346 0 0)
(-0.00201345 0 0)
(-0.00201345 0 0)
(-0.00201345 0 0)
(-0.00201345 0 0)
(-0.00201346 0 0)
(-0.00201345 0 0)
(-0.00201345 0 0)
(-0.00201345 0 0)
(-0.00201344 0 0)
(-0.00201345 0 0)
(-0.00201344 0 0)
(-0.00201345 0 0)
(-0.00201344 0 0)
(-0.00201344 0 0)
(-0.00201344 0 0)
(-0.00201344 0 0)
(-0.00201345 0 0)
(-0.00201344 0 0)
(-0.00201344 0 0)
(-0.00201344 0 0)
(-0.00201344 0 0)
(-0.00201344 0 0)
(-0.00201344 0 0)
(-0.00201343 0 0)
(-0.00201344 0 0)
(-0.00201344 0 0)
(-0.00201343 0 0)
(-0.00201344 0 0)
(-0.00201343 0 0)
(-0.00201344 0 0)
(-0.00201343 0 0)
(-0.00201343 0 0)
(-0.00201343 0 0)
(-0.00201343 0 0)
(-0.00201343 0 0)
(-0.00201343 0 0)
(-0.00201344 0 0)
(-0.00201343 0 0)
(-0.00201343 0 0)
(-0.00201343 0 0)
(-0.00201343 0 0)
(-0.00201343 0 0)
(-0.00201343 0 0)
(-0.00201343 0 0)
(-0.00201343 0 0)
(-0.00201343 0 0)
(-0.00201343 0 0)
(-0.00201343 0 0)
(-0.00201343 0 0)
(-0.00201343 0 0)
(-0.00201343 0 0)
(-0.00201343 0 0)
(-0.00201343 0 0)
(-0.00201343 0 0)
(-0.00201343 0 0)
(-0.00201343 0 0)
(-0.00201343 0 0)
(-0.00201343 0 0)
(-0.00201343 0 0)
(-0.00201343 0 0)
(-0.00201343 0 0)
(-0.00201343 0 0)
(-0.00201343 0 0)
(-0.00201343 0 0)
(-0.00201344 0 0)
(-0.00201343 0 0)
(-0.00201344 0 0)
(-0.00201343 0 0)
(-0.00201344 0 0)
(-0.00201343 0 0)
(-0.00201343 0 0)
(-0.00201343 0 0)
(-0.00201343 0 0)
(-0.00201344 0 0)
(-0.00201343 0 0)
(-0.00201344 0 0)
(-0.00201343 0 0)
(-0.00201343 0 0)
(-0.00201343 0 0)
(-0.00201344 0 0)
(-0.00201343 0 0)
(-0.00201343 0 0)
(-0.00201344 0 0)
(-0.00201343 0 0)
(-0.00201344 0 0)
(-0.00201344 0 0)
(-0.00201343 0 0)
(-0.00201344 0 0)
(-0.00201343 0 0)
(-0.00201344 0 0)
(-0.00201343 0 0)
(-0.00201344 0 0)
(-0.00201343 0 0)
(-0.00201343 0 0)
(-0.00201343 0 0)
(-0.00201343 0 0)
(-0.00201343 0 0)
(-0.00201343 0 0)
(-0.00201343 0 0)
(-0.00201342 0 0)
(-0.00201343 0 0)
(-0.00201342 0 0)
(-0.00201343 0 0)
(-0.00201343 0 0)
(-0.00201342 0 0)
(-0.00201343 0 0)
(-0.00201342 0 0)
(-0.00201343 0 0)
(-0.00201342 0 0)
(-0.00201342 0 0)
(-0.00201342 0 0)
(-0.00201341 0 0)
(-0.00201342 0 0)
(-0.00201341 0 0)
(-0.00201342 0 0)
(-0.00201341 0 0)
(-0.00201341 0 0)
(-0.0020134 0 0)
(-0.00201341 0 0)
(-0.00201341 0 0)
(-0.0020134 0 0)
(-0.0020134 0 0)
(-0.0020134 0 0)
(-0.0020134 0 0)
(-0.0020134 0 0)
(-0.0020134 0 0)
(-0.00201339 0 0)
(-0.00201339 0 0)
(-0.00201339 0 0)
(-0.00201339 0 0)
(-0.00201338 0 0)
(-0.00201339 0 0)
(-0.00201338 0 0)
(-0.00201339 0 0)
(-0.00201339 0 0)
(-0.00201338 0 0)
(-0.00201339 0 0)
(-0.00201338 0 0)
(-0.00201338 0 0)
(-0.00201337 0 0)
(-0.00201338 0 0)
(-0.00201337 0 0)
(-0.00201338 0 0)
(-0.00201338 0 0)
(-0.00201337 0 0)
(-0.00201338 0 0)
(-0.00201337 0 0)
(-0.00201337 0 0)
(-0.00201337 0 0)
(-0.00201337 0 0)
(-0.00201337 0 0)
(-0.00201337 0 0)
(-0.00201337 0 0)
(-0.00201337 0 0)
(-0.00201336 0 0)
(-0.00201337 0 0)
(-0.00201337 0 0)
(-0.00201336 0 0)
(-0.00201337 0 0)
(-0.00201336 0 0)
(-0.00201336 0 0)
(-0.00201336 0 0)
(-0.00201336 0 0)
(-0.00201336 0 0)
(-0.00201337 0 0)
(-0.00201336 0 0)
(-0.00201336 0 0)
(-0.00201337 0 0)
(-0.00201337 0 0)
(-0.00201336 0 0)
(-0.00201337 0 0)
(-0.00201337 0 0)
(-0.00201337 0 0)
(-0.00201337 0 0)
(-0.00201337 0 0)
(-0.00201337 0 0)
(-0.00201337 0 0)
(-0.00201337 0 0)
(-0.00201337 0 0)
(-0.00201337 0 0)
(-0.00201337 0 0)
(-0.00201337 0 0)
(-0.00201337 0 0)
(-0.00201337 0 0)
(-0.00201338 0 0)
(-0.00201337 0 0)
(-0.00201338 0 0)
(-0.00201338 0 0)
(-0.00201338 0 0)
(-0.00201338 0 0)
(-0.00201338 0 0)
(-0.00201338 0 0)
(-0.00201338 0 0)
(-0.00201338 0 0)
(-0.00201338 0 0)
(-0.00201338 0 0)
(-0.00201338 0 0)
(-0.00201338 0 0)
(-0.00201338 0 0)
(-0.00201338 0 0)
(-0.00201339 0 0)
(-0.00201338 0 0)
(-0.00201339 0 0)
(-0.00201339 0 0)
(-0.00201339 0 0)
(-0.00201339 0 0)
(-0.00201339 0 0)
(-0.00201339 0 0)
(-0.00201339 0 0)
(-0.00201339 0 0)
(-0.00201339 0 0)
(-0.00201339 0 0)
(-0.00201339 0 0)
(-0.00201339 0 0)
(-0.00201339 0 0)
(-0.00201339 0 0)
(-0.00201339 0 0)
(-0.00201339 0 0)
(-0.00201339 0 0)
(-0.00201339 0 0)
(-0.00201339 0 0)
(-0.00201339 0 0)
(-0.00201339 0 0)
(-0.00201339 0 0)
(-0.00201339 0 0)
(-0.00201338 0 0)
(-0.00201339 0 0)
(-0.00201338 0 0)
(-0.00201339 0 0)
(-0.00201338 0 0)
(-0.00201338 0 0)
(-0.00201338 0 0)
(-0.00201338 0 0)
(-0.00201338 0 0)
(-0.00201337 0 0)
(-0.00201338 0 0)
(-0.00201337 0 0)
(-0.00201337 0 0)
(-0.00201337 0 0)
(-0.00201336 0 0)
(-0.00201337 0 0)
(-0.00201336 0 0)
(-0.00201337 0 0)
(-0.00201336 0 0)
(-0.00201336 0 0)
(-0.00201336 0 0)
(-0.00201335 0 0)
(-0.00201335 0 0)
(-0.00201334 0 0)
(-0.00201335 0 0)
(-0.00201334 0 0)
(-0.00201334 0 0)
(-0.00201333 0 0)
(-0.00201333 0 0)
(-0.00201333 0 0)
(-0.00201332 0 0)
(-0.00201332 0 0)
(-0.00201332 0 0)
(-0.00201331 0 0)
(-0.00201331 0 0)
(-0.00201331 0 0)
(-0.0020133 0 0)
(-0.0020133 0 0)
(-0.00201329 0 0)
(-0.00201329 0 0)
(-0.00201329 0 0)
(-0.00201328 0 0)
(-0.00201328 0 0)
(-0.00201327 0 0)
(-0.00201327 0 0)
(-0.00201327 0 0)
(-0.00201326 0 0)
(-0.00201326 0 0)
(-0.00201326 0 0)
(-0.00201325 0 0)
(-0.00201326 0 0)
(-0.00201324 0 0)
(-0.00201325 0 0)
(-0.00201324 0 0)
(-0.00201323 0 0)
(-0.00201324 0 0)
(-0.00201323 0 0)
(-0.00201323 0 0)
(-0.00201323 0 0)
(-0.00201322 0 0)
(-0.00201323 0 0)
(-0.00201323 0 0)
(-0.00201322 0 0)
(-0.00201323 0 0)
(-0.00201322 0 0)
(-0.00201322 0 0)
(-0.00201323 0 0)
(-0.00201322 0 0)
(-0.00201322 0 0)
(-0.00201322 0 0)
(-0.00201322 0 0)
(-0.00201322 0 0)
(-0.00201323 0 0)
(-0.00201322 0 0)
(-0.00201323 0 0)
(-0.00201323 0 0)
(-0.00201323 0 0)
(-0.00201323 0 0)
(-0.00201323 0 0)
(-0.00201324 0 0)
(-0.00201324 0 0)
(-0.00201324 0 0)
(-0.00201325 0 0)
(-0.00201325 0 0)
(-0.00201325 0 0)
(-0.00201326 0 0)
(-0.00201326 0 0)
(-0.00201326 0 0)
(-0.00201327 0 0)
(-0.00201327 0 0)
(-0.00201328 0 0)
(-0.00201328 0 0)
(-0.00201328 0 0)
(-0.00201329 0 0)
(-0.00201329 0 0)
(-0.0020133 0 0)
(-0.0020133 0 0)
(-0.0020133 0 0)
(-0.00201331 0 0)
(-0.00201331 0 0)
(-0.00201332 0 0)
(-0.00201332 0 0)
(-0.00201332 0 0)
(-0.00201333 0 0)
(-0.00201333 0 0)
(-0.00201333 0 0)
(-0.00201334 0 0)
(-0.00201334 0 0)
(-0.00201334 0 0)
(-0.00201335 0 0)
(-0.00201335 0 0)
(-0.00201335 0 0)
(-0.00201336 0 0)
(-0.00201335 0 0)
(-0.00201336 0 0)
(-0.00201336 0 0)
(-0.00201336 0 0)
(-0.00201336 0 0)
(-0.00201336 0 0)
(-0.00201336 0 0)
(-0.00201336 0 0)
(-0.00201336 0 0)
(-0.00201336 0 0)
(-0.00201336 0 0)
(-0.00201336 0 0)
(-0.00201336 0 0)
(-0.00201336 0 0)
(-0.00201335 0 0)
(-0.00201335 0 0)
(-0.00201335 0 0)
(-0.00201335 0 0)
(-0.00201335 0 0)
(-0.00201334 0 0)
(-0.00201334 0 0)
(-0.00201333 0 0)
(-0.00201333 0 0)
(-0.00201332 0 0)
(-0.00201332 0 0)
(-0.00201332 0 0)
(-0.00201331 0 0)
(-0.00201331 0 0)
(-0.0020133 0 0)
(-0.0020133 0 0)
(-0.00201329 0 0)
(-0.00201329 0 0)
(-0.00201328 0 0)
(-0.00201328 0 0)
(-0.00201327 0 0)
(-0.00201327 0 0)
(-0.00201326 0 0)
(-0.00201326 0 0)
(-0.00201326 0 0)
(-0.00201325 0 0)
(-0.00201325 0 0)
(-0.00201324 0 0)
(-0.00201323 0 0)
(-0.00201323 0 0)
(-0.00201322 0 0)
(-0.00201322 0 0)
(-0.00201321 0 0)
(-0.00201321 0 0)
(-0.00201321 0 0)
(-0.0020132 0 0)
(-0.0020132 0 0)
(-0.0020132 0 0)
(-0.00201319 0 0)
(-0.00201319 0 0)
(-0.00201319 0 0)
(-0.00201318 0 0)
(-0.00201318 0 0)
(-0.00201318 0 0)
(-0.00201317 0 0)
(-0.00201318 0 0)
(-0.00201317 0 0)
(-0.00201318 0 0)
(-0.00201317 0 0)
(-0.00201317 0 0)
(-0.00201318 0 0)
(-0.00201317 0 0)
(-0.00201318 0 0)
(-0.00201317 0 0)
(-0.00201318 0 0)
(-0.00201318 0 0)
(-0.00201318 0 0)
(-0.00201319 0 0)
(-0.00201319 0 0)
(-0.00201319 0 0)
(-0.0020132 0 0)
(-0.00201321 0 0)
(-0.00201321 0 0)
(-0.00201322 0 0)
(-0.00201323 0 0)
(-0.00201324 0 0)
(-0.00201326 0 0)
(-0.00201327 0 0)
(-0.00201329 0 0)
(-0.00201331 0 0)
(-0.00201333 0 0)
(-0.00201335 0 0)
(-0.00201338 0 0)
(-0.00201341 0 0)
(-0.00201345 0 0)
(-0.00201349 0 0)
(-0.00201353 0 0)
(-0.00201358 0 0)
(-0.00201364 0 0)
(-0.00201371 0 0)
(-0.00201378 0 0)
(-0.00201387 0 0)
(-0.00201396 0 0)
(-0.00201407 0 0)
(-0.00201419 0 0)
(-0.00201433 0 0)
(-0.00201448 0 0)
(-0.00201465 0 0)
(-0.00201484 0 0)
(-0.00201506 0 0)
(-0.0020153 0 0)
(-0.00201558 0 0)
(-0.00201588 0 0)
(-0.00201622 0 0)
(-0.0020166 0 0)
(-0.00201703 0 0)
(-0.00201751 0 0)
(-0.00201803 0 0)
(-0.00201862 0 0)
(-0.00201928 0 0)
(-0.00202001 0 0)
(-0.00202081 0 0)
(-0.00202171 0 0)
(-0.0020227 0 0)
(-0.0020238 0 0)
(-0.00202501 0 0)
(-0.00202635 0 0)
(-0.00202782 0 0)
(-0.00202945 0 0)
(-0.00203124 0 0)
(-0.00203321 0 0)
(-0.00203538 0 0)
(-0.00203775 0 0)
(-0.00204035 0 0)
(-0.0020432 0 0)
(-0.00204631 0 0)
(-0.00204972 0 0)
(-0.00205343 0 0)
(-0.00205748 0 0)
(-0.00206189 0 0)
(-0.00206668 0 0)
(-0.00207189 0 0)
(-0.00207754 0 0)
(-0.00208366 0 0)
(-0.00209029 0 0)
(-0.00209746 0 0)
(-0.0021052 0 0)
(-0.00211355 0 0)
(-0.00212255 0 0)
(-0.00213223 0 0)
(-0.00214264 0 0)
(-0.00215382 0 0)
(-0.0021658 0 0)
(-0.00217863 0 0)
(-0.00219236 0 0)
(-0.00220702 0 0)
(-0.00222266 0 0)
(-0.00223934 0 0)
(-0.00225708 0 0)
(-0.00227594 0 0)
(-0.00229596 0 0)
(-0.00231719 0 0)
(-0.00233966 0 0)
(-0.00236343 0 0)
(-0.00238852 0 0)
(-0.00241499 0 0)
(-0.00244286 0 0)
(-0.00247217 0 0)
(-0.00250296 0 0)
(-0.00253525 0 0)
(-0.00256907 0 0)
(-0.00260443 0 0)
(-0.00264136 0 0)
(-0.00267987 0 0)
(-0.00271997 0 0)
(-0.00276165 0 0)
(-0.00280492 0 0)
(-0.00284975 0 0)
(-0.00289613 0 0)
(-0.00294404 0 0)
(-0.00299343 0 0)
(-0.00304427 0 0)
(-0.0030965 0 0)
(-0.00315005 0 0)
(-0.00320485 0 0)
(-0.00326081 0 0)
(-0.00331784 0 0)
(-0.00337583 0 0)
(-0.00343464 0 0)
(-0.00349414 0 0)
(-0.00355418 0 0)
(-0.00361458 0 0)
(-0.00367517 0 0)
(-0.00373572 0 0)
(-0.00379603 0 0)
(-0.00385583 0 0)
(-0.00391488 0 0)
(-0.00397287 0 0)
(-0.00402949 0 0)
(-0.00408438 0 0)
(-0.00413716 0 0)
(-0.00418736 0 0)
(-0.0042347 0 0)
(-0.00427827 0 0)
(-0.00431701 0 0)
(-0.00435261 0 0)
(-0.00438535 0 0)
(-0.00441211 0 0)
(-0.00443185 0 0)
(-0.00444399 0 0)
(-0.00444788 0 0)
(-0.00444272 0 0)
(-0.00442712 0 0)
(-0.00440022 0 0)
(-0.00436045 0 0)
(-0.00430641 0 0)
(-0.00423642 0 0)
(-0.00414862 0 0)
(-0.00404094 0 0)
(-0.00391167 0 0)
(-0.0037594 0 0)
(-0.00358186 0 0)
(-0.00336584 0 0)
(-0.0030849 0 0)
(-0.00279044 0 0)
)
;

boundaryField
{
    fixedWall
    {
        type            fixedValue;
        value           uniform (0 0 0);
    }
    outlet
    {
        type            pressureInletOutletVelocity;
        value           uniform (-0.00279044 0 0);
    }
    defaultFaces
    {
        type            empty;
    }
}


// ************************************************************************* //
