/*--------------------------------*- C++ -*----------------------------------*\
| =========                 |                                                 |
| \\      /  F ield         | OpenFOAM: The Open Source CFD Toolbox           |
|  \\    /   O peration     | Version:  2406                                  |
|   \\  /    A nd           | Website:  www.openfoam.com                      |
|    \\/     M anipulation  |                                                 |
\*---------------------------------------------------------------------------*/
FoamFile
{
    version     2.0;
    format      ascii;
    arch        "LSB;label=32;scalar=64";
    class       volScalarField;
    location    "5";
    object      H2O;
}
// * * * * * * * * * * * * * * * * * * * * * * * * * * * * * * * * * * * * * //

dimensions      [0 0 0 0 0 0 0];

internalField   nonuniform List<scalar> 
1000
(
0.0580664
0.0580664
0.0580664
0.0580664
0.0580664
0.0580664
0.0580664
0.0580664
0.0580664
0.0580664
0.0580664
0.0580664
0.0580664
0.0580665
0.0580665
0.0580665
0.0580665
0.0580665
0.0580665
0.0580665
0.0580665
0.0580665
0.0580666
0.0580666
0.0580666
0.0580666
0.0580666
0.0580666
0.0580666
0.0580666
0.0580667
0.0580667
0.0580667
0.0580667
0.0580667
0.0580667
0.0580667
0.0580667
0.0580667
0.0580667
0.0580668
0.0580668
0.0580668
0.0580668
0.0580668
0.0580668
0.0580668
0.0580668
0.0580668
0.0580668
0.0580668
0.0580668
0.0580668
0.0580669
0.0580669
0.0580669
0.0580669
0.0580669
0.0580669
0.0580669
0.0580669
0.0580669
0.0580669
0.0580669
0.0580669
0.0580669
0.0580669
0.0580669
0.0580669
0.0580669
0.0580669
0.0580669
0.0580669
0.0580669
0.0580669
0.0580669
0.0580669
0.0580669
0.0580669
0.0580669
0.0580669
0.0580669
0.0580669
0.0580669
0.0580669
0.0580669
0.0580669
0.0580669
0.0580669
0.0580669
0.0580669
0.0580669
0.0580669
0.0580669
0.0580669
0.0580669
0.0580669
0.0580669
0.0580669
0.0580669
0.0580669
0.0580669
0.0580669
0.0580669
0.0580669
0.0580669
0.0580669
0.0580669
0.0580669
0.0580669
0.0580669
0.0580669
0.0580669
0.0580669
0.0580669
0.0580669
0.0580669
0.0580669
0.0580669
0.0580669
0.0580669
0.0580669
0.0580669
0.0580669
0.0580669
0.0580669
0.0580669
0.0580669
0.0580669
0.0580669
0.0580669
0.0580669
0.0580669
0.0580669
0.0580669
0.0580669
0.0580669
0.0580669
0.0580669
0.0580669
0.0580669
0.0580669
0.0580669
0.0580669
0.0580669
0.0580669
0.0580669
0.0580669
0.0580669
0.0580669
0.0580669
0.0580669
0.0580669
0.0580669
0.0580669
0.0580669
0.0580669
0.0580669
0.0580669
0.0580669
0.0580669
0.0580669
0.0580669
0.0580669
0.0580669
0.0580669
0.0580669
0.0580669
0.0580669
0.0580669
0.0580669
0.0580669
0.0580669
0.0580669
0.0580669
0.0580669
0.0580669
0.0580669
0.0580669
0.0580669
0.0580669
0.0580669
0.0580669
0.0580669
0.0580669
0.0580669
0.0580669
0.0580669
0.0580669
0.0580669
0.0580669
0.0580669
0.0580669
0.0580669
0.0580669
0.0580669
0.0580669
0.0580669
0.0580669
0.0580669
0.0580669
0.0580669
0.0580669
0.0580669
0.0580669
0.0580669
0.0580669
0.0580669
0.0580669
0.0580669
0.0580669
0.0580669
0.0580669
0.0580669
0.0580669
0.0580669
0.0580669
0.0580669
0.0580669
0.0580669
0.0580669
0.0580669
0.0580669
0.0580669
0.0580669
0.0580669
0.0580669
0.0580669
0.0580669
0.0580669
0.0580669
0.0580669
0.0580669
0.0580669
0.0580669
0.0580669
0.0580669
0.0580669
0.0580669
0.0580669
0.0580669
0.0580669
0.0580669
0.0580669
0.0580669
0.0580669
0.0580669
0.0580669
0.0580669
0.0580669
0.0580669
0.0580669
0.0580669
0.0580669
0.0580669
0.0580669
0.0580669
0.0580669
0.0580669
0.0580669
0.0580669
0.0580669
0.0580669
0.0580669
0.0580669
0.0580669
0.0580669
0.0580669
0.0580669
0.0580669
0.0580669
0.0580669
0.0580669
0.0580669
0.0580669
0.0580669
0.0580669
0.0580669
0.0580669
0.0580669
0.0580669
0.0580669
0.0580669
0.0580669
0.0580669
0.0580669
0.0580669
0.0580669
0.0580669
0.0580669
0.0580669
0.0580669
0.0580669
0.0580669
0.0580669
0.0580669
0.0580669
0.0580669
0.0580669
0.0580669
0.0580669
0.0580668
0.0580668
0.0580668
0.0580668
0.0580668
0.0580668
0.0580668
0.0580668
0.0580668
0.0580668
0.0580668
0.0580668
0.0580668
0.0580668
0.0580668
0.0580668
0.0580668
0.0580668
0.0580668
0.0580668
0.0580668
0.0580668
0.0580668
0.0580668
0.0580668
0.0580668
0.0580668
0.0580668
0.0580668
0.0580668
0.0580668
0.0580668
0.0580668
0.0580668
0.0580668
0.0580668
0.0580668
0.0580668
0.0580668
0.0580668
0.0580668
0.0580668
0.0580668
0.0580668
0.0580668
0.0580668
0.0580668
0.0580668
0.0580668
0.0580668
0.0580668
0.0580668
0.0580668
0.0580668
0.0580668
0.0580668
0.0580668
0.0580668
0.0580668
0.0580668
0.0580668
0.0580668
0.0580668
0.0580668
0.0580668
0.0580668
0.0580668
0.0580668
0.0580668
0.0580668
0.0580668
0.0580668
0.0580668
0.0580668
0.0580668
0.0580668
0.0580668
0.0580668
0.0580668
0.0580668
0.0580668
0.0580668
0.0580668
0.0580668
0.0580668
0.0580668
0.0580668
0.0580668
0.0580668
0.0580668
0.0580668
0.0580668
0.0580668
0.0580668
0.0580668
0.0580668
0.0580668
0.0580668
0.0580668
0.0580668
0.0580668
0.0580668
0.0580668
0.0580668
0.0580668
0.0580668
0.0580668
0.0580668
0.0580668
0.0580668
0.0580668
0.0580668
0.0580667
0.0580667
0.0580667
0.0580667
0.0580667
0.0580667
0.0580667
0.0580667
0.0580667
0.0580667
0.0580667
0.0580667
0.0580667
0.0580667
0.0580667
0.0580667
0.0580667
0.0580667
0.0580667
0.0580667
0.0580667
0.0580667
0.0580667
0.0580667
0.0580667
0.0580667
0.0580667
0.0580667
0.0580667
0.0580667
0.0580667
0.0580667
0.0580667
0.0580667
0.0580667
0.0580667
0.0580667
0.0580667
0.0580667
0.0580667
0.0580667
0.0580667
0.0580667
0.0580667
0.0580667
0.0580667
0.0580667
0.0580667
0.0580667
0.0580667
0.0580667
0.0580667
0.0580667
0.0580667
0.0580667
0.0580667
0.0580667
0.0580667
0.0580667
0.0580667
0.0580667
0.0580667
0.0580667
0.0580667
0.0580667
0.0580667
0.0580667
0.0580667
0.0580667
0.0580667
0.0580667
0.0580666
0.0580666
0.0580666
0.0580666
0.0580666
0.0580666
0.0580666
0.0580666
0.0580666
0.0580666
0.0580666
0.0580666
0.0580666
0.0580666
0.0580666
0.0580666
0.0580666
0.0580666
0.0580666
0.0580666
0.0580666
0.0580666
0.0580666
0.0580666
0.0580666
0.0580666
0.0580666
0.0580666
0.0580666
0.0580666
0.0580666
0.0580666
0.0580666
0.0580666
0.0580666
0.0580666
0.0580666
0.0580666
0.0580666
0.0580666
0.0580666
0.0580666
0.0580666
0.0580666
0.0580666
0.0580666
0.0580666
0.0580666
0.0580665
0.0580665
0.0580665
0.0580665
0.0580665
0.0580665
0.0580665
0.0580665
0.0580665
0.0580665
0.0580665
0.0580665
0.0580665
0.0580665
0.0580665
0.0580665
0.0580665
0.0580665
0.0580665
0.0580665
0.0580665
0.0580665
0.0580665
0.0580665
0.0580665
0.0580665
0.0580665
0.0580665
0.0580665
0.0580665
0.0580665
0.0580665
0.0580665
0.0580665
0.0580665
0.0580664
0.0580664
0.0580664
0.0580664
0.0580664
0.0580664
0.0580664
0.0580664
0.0580664
0.0580664
0.0580664
0.0580664
0.0580664
0.0580664
0.0580664
0.0580664
0.0580664
0.0580664
0.0580664
0.0580664
0.0580664
0.0580664
0.0580664
0.0580664
0.0580664
0.0580664
0.0580664
0.0580663
0.0580663
0.0580663
0.0580663
0.0580663
0.0580663
0.0580663
0.0580663
0.0580663
0.0580663
0.0580663
0.0580663
0.0580663
0.0580663
0.0580663
0.0580663
0.0580663
0.0580663
0.0580663
0.0580663
0.0580663
0.0580662
0.0580662
0.0580662
0.0580662
0.0580662
0.0580662
0.0580662
0.0580662
0.0580662
0.0580662
0.0580662
0.0580662
0.0580662
0.0580662
0.0580662
0.0580662
0.0580662
0.0580662
0.0580661
0.0580661
0.0580661
0.0580661
0.0580661
0.0580661
0.0580661
0.0580661
0.0580661
0.0580661
0.0580661
0.0580661
0.0580661
0.0580661
0.058066
0.058066
0.058066
0.058066
0.058066
0.058066
0.058066
0.058066
0.058066
0.058066
0.058066
0.0580659
0.0580659
0.0580659
0.0580659
0.0580659
0.0580659
0.0580659
0.0580659
0.0580659
0.0580659
0.0580659
0.0580658
0.0580658
0.0580658
0.0580658
0.0580658
0.0580658
0.0580658
0.0580658
0.0580657
0.0580657
0.0580657
0.0580657
0.0580657
0.0580657
0.0580657
0.0580657
0.0580656
0.0580656
0.0580656
0.0580656
0.0580656
0.0580656
0.0580656
0.0580655
0.0580655
0.0580655
0.0580655
0.0580655
0.0580654
0.0580654
0.0580654
0.0580654
0.0580654
0.0580654
0.0580653
0.0580653
0.0580653
0.0580653
0.0580652
0.0580652
0.0580652
0.0580652
0.0580652
0.0580651
0.0580651
0.0580651
0.058065
0.058065
0.058065
0.058065
0.0580649
0.0580649
0.0580649
0.0580648
0.0580648
0.0580648
0.0580647
0.0580647
0.0580647
0.0580646
0.0580646
0.0580645
0.0580645
0.0580645
0.0580644
0.0580644
0.0580643
0.0580643
0.0580642
0.0580642
0.0580641
0.0580641
0.058064
0.0580639
0.0580639
0.0580638
0.0580637
0.0580637
0.0580636
0.0580635
0.0580634
0.0580633
0.0580633
0.0580632
0.0580631
0.058063
0.0580629
0.0580628
0.0580626
0.0580625
0.0580624
0.0580623
0.0580621
0.058062
0.0580618
0.0580616
0.0580614
0.0580612
0.058061
0.0580608
0.0580606
0.0580603
0.05806
0.0580597
0.0580594
0.058059
0.0580586
0.0580582
0.0580577
0.0580572
0.0580566
0.058056
0.0580552
0.0580544
0.0580535
0.0580524
0.0580511
0.0580496
0.0580479
0.0580457
0.0580431
0.0580399
0.0580356
0.05803
0.0580222
0.0580109
0.0579931
0.0579628
0.0579058
0.0577826
0.0574638
0.0564623
0.0527692
0.0320473
0.0161259
0.00806321
0.00403004
0.00201498
0.00100755
0.000503695
0.00025173
0.000125771
6.28247e-05
3.13773e-05
1.56694e-05
7.8244e-06
3.9068e-06
1.9506e-06
9.73881e-07
4.86236e-07
2.42809e-07
1.21277e-07
6.06117e-08
3.03393e-08
1.52308e-08
7.60984e-09
3.9165e-09
2.04177e-09
1.40353e-09
8.83689e-10
5.09358e-10
3.3757e-10
2.5513e-10
2.21499e-10
1.95615e-10
1.79781e-10
1.73996e-10
1.7049e-10
1.68655e-10
1.67129e-10
1.66435e-10
1.65893e-10
1.65646e-10
1.65486e-10
1.6543e-10
1.65391e-10
1.65361e-10
1.65346e-10
1.65335e-10
1.65329e-10
1.65327e-10
1.65326e-10
1.65326e-10
1.65326e-10
1.65327e-10
1.65327e-10
1.65328e-10
1.65329e-10
1.65329e-10
1.6533e-10
1.65331e-10
1.65332e-10
1.65333e-10
1.65333e-10
1.65334e-10
1.65335e-10
1.65336e-10
1.65337e-10
1.65338e-10
1.65339e-10
1.6534e-10
1.65341e-10
1.65341e-10
1.65342e-10
1.65343e-10
1.65344e-10
1.65344e-10
1.65345e-10
1.65346e-10
1.65347e-10
1.65347e-10
1.65348e-10
1.65349e-10
1.6535e-10
1.65351e-10
1.65351e-10
1.65352e-10
1.65353e-10
1.65354e-10
1.65355e-10
1.65356e-10
1.65357e-10
1.65357e-10
1.65358e-10
1.65359e-10
1.6536e-10
1.65361e-10
1.65362e-10
1.65363e-10
1.65364e-10
1.65364e-10
1.65366e-10
1.65366e-10
1.65367e-10
1.65368e-10
1.65369e-10
1.6537e-10
1.65371e-10
1.65371e-10
1.65372e-10
1.65373e-10
1.65374e-10
1.65375e-10
1.65376e-10
1.65377e-10
1.65377e-10
1.65378e-10
1.65379e-10
1.6538e-10
1.65381e-10
1.65382e-10
1.65383e-10
1.65383e-10
1.65384e-10
1.65385e-10
1.65386e-10
1.65387e-10
1.65388e-10
1.65388e-10
1.65389e-10
1.6539e-10
1.65391e-10
1.65391e-10
1.65392e-10
1.65393e-10
1.65394e-10
1.65395e-10
1.65395e-10
1.65396e-10
1.65397e-10
1.65398e-10
1.65399e-10
1.654e-10
1.654e-10
1.65401e-10
1.65402e-10
1.65403e-10
1.65404e-10
1.65405e-10
1.65406e-10
1.65407e-10
1.65408e-10
1.65409e-10
1.65409e-10
1.6541e-10
1.65411e-10
1.65412e-10
1.65413e-10
1.65414e-10
1.65415e-10
1.65416e-10
1.65417e-10
1.65418e-10
1.65418e-10
1.65419e-10
1.6542e-10
1.65421e-10
1.65422e-10
1.65423e-10
1.65424e-10
1.65425e-10
1.65425e-10
1.65426e-10
1.65427e-10
1.65428e-10
1.65429e-10
1.6543e-10
1.65431e-10
1.65432e-10
1.65433e-10
1.65434e-10
1.65435e-10
1.65436e-10
1.65436e-10
1.65437e-10
1.65438e-10
1.65438e-10
1.65439e-10
1.6544e-10
1.65441e-10
1.65441e-10
1.65442e-10
1.65443e-10
1.65444e-10
1.65445e-10
1.65446e-10
1.65446e-10
1.65447e-10
1.65448e-10
1.65449e-10
1.6545e-10
)
;

boundaryField
{
    fixedWall
    {
        type            zeroGradient;
    }
    outlet
    {
        type            inletOutlet;
        inletValue      uniform 0;
        value           uniform 1.6545e-10;
    }
    defaultFaces
    {
        type            empty;
    }
}


// ************************************************************************* //
