/*--------------------------------*- C++ -*----------------------------------*\
| =========                 |                                                 |
| \\      /  F ield         | OpenFOAM: The Open Source CFD Toolbox           |
|  \\    /   O peration     | Version:  2406                                  |
|   \\  /    A nd           | Website:  www.openfoam.com                      |
|    \\/     M anipulation  |                                                 |
\*---------------------------------------------------------------------------*/
FoamFile
{
    version     2.0;
    format      ascii;
    arch        "LSB;label=32;scalar=64";
    class       volScalarField;
    location    "5";
    object      O2;
}
// * * * * * * * * * * * * * * * * * * * * * * * * * * * * * * * * * * * * * //

dimensions      [0 0 0 0 0 0 0];

internalField   nonuniform List<scalar> 
1000
(
1.46753e-06
1.46408e-06
1.45802e-06
1.44986e-06
1.43997e-06
1.4286e-06
1.41596e-06
1.4022e-06
1.38746e-06
1.37184e-06
1.35543e-06
1.33832e-06
1.32058e-06
1.30228e-06
1.28346e-06
1.26419e-06
1.24451e-06
1.22448e-06
1.20415e-06
1.18355e-06
1.16272e-06
1.14173e-06
1.1206e-06
1.09938e-06
1.07811e-06
1.05684e-06
1.0356e-06
1.01444e-06
9.93397e-07
9.72508e-07
9.51814e-07
9.31351e-07
9.11153e-07
8.91255e-07
8.71687e-07
8.52479e-07
8.33657e-07
8.15246e-07
7.97266e-07
7.79739e-07
7.6268e-07
7.46104e-07
7.30021e-07
7.14442e-07
6.99373e-07
6.84819e-07
6.70783e-07
6.57263e-07
6.4426e-07
6.31771e-07
6.19789e-07
6.0831e-07
5.97326e-07
5.86828e-07
5.76806e-07
5.67251e-07
5.58152e-07
5.49495e-07
5.41269e-07
5.33462e-07
5.2606e-07
5.19051e-07
5.1242e-07
5.06154e-07
5.0024e-07
4.94665e-07
4.89414e-07
4.84476e-07
4.79838e-07
4.75485e-07
4.71407e-07
4.6759e-07
4.64024e-07
4.60696e-07
4.57595e-07
4.54711e-07
4.52033e-07
4.49551e-07
4.47254e-07
4.45135e-07
4.43182e-07
4.41389e-07
4.39746e-07
4.38246e-07
4.3688e-07
4.35642e-07
4.34524e-07
4.3352e-07
4.32623e-07
4.31828e-07
4.31128e-07
4.30517e-07
4.29992e-07
4.29546e-07
4.29176e-07
4.28875e-07
4.28641e-07
4.2847e-07
4.28357e-07
4.28299e-07
4.28292e-07
4.28333e-07
4.28419e-07
4.28548e-07
4.28716e-07
4.28922e-07
4.29162e-07
4.29434e-07
4.29737e-07
4.30068e-07
4.30426e-07
4.30809e-07
4.31214e-07
4.31642e-07
4.32089e-07
4.32556e-07
4.33039e-07
4.3354e-07
4.34055e-07
4.34585e-07
4.35128e-07
4.35684e-07
4.36251e-07
4.36829e-07
4.37417e-07
4.38015e-07
4.38622e-07
4.39236e-07
4.39859e-07
4.40489e-07
4.41126e-07
4.41769e-07
4.42419e-07
4.43074e-07
4.43734e-07
4.444e-07
4.4507e-07
4.45745e-07
4.46425e-07
4.47108e-07
4.47796e-07
4.48487e-07
4.49182e-07
4.4988e-07
4.50582e-07
4.51287e-07
4.51996e-07
4.52707e-07
4.53421e-07
4.54139e-07
4.54859e-07
4.55582e-07
4.56307e-07
4.57036e-07
4.57767e-07
4.58501e-07
4.59237e-07
4.59976e-07
4.60717e-07
4.61461e-07
4.62208e-07
4.62957e-07
4.63705e-07
4.64455e-07
4.65213e-07
4.65973e-07
4.66736e-07
4.67501e-07
4.68268e-07
4.69038e-07
4.69811e-07
4.70585e-07
4.71363e-07
4.72143e-07
4.72926e-07
4.73711e-07
4.74498e-07
4.75289e-07
4.76082e-07
4.76877e-07
4.77675e-07
4.78476e-07
4.7928e-07
4.80086e-07
4.80895e-07
4.81707e-07
4.82521e-07
4.83339e-07
4.84158e-07
4.84981e-07
4.85807e-07
4.86635e-07
4.87466e-07
4.883e-07
4.89137e-07
4.89977e-07
4.90819e-07
4.91664e-07
4.92513e-07
4.93364e-07
4.94218e-07
4.95075e-07
4.95935e-07
4.96797e-07
4.97663e-07
4.98532e-07
4.99404e-07
5.00278e-07
5.01156e-07
5.02037e-07
5.0292e-07
5.03807e-07
5.04697e-07
5.0559e-07
5.06486e-07
5.07385e-07
5.08287e-07
5.09192e-07
5.101e-07
5.11011e-07
5.11926e-07
5.12843e-07
5.13764e-07
5.14688e-07
5.15615e-07
5.16545e-07
5.17479e-07
5.18415e-07
5.19355e-07
5.20298e-07
5.21244e-07
5.22194e-07
5.23147e-07
5.24103e-07
5.25063e-07
5.26025e-07
5.26991e-07
5.27961e-07
5.28933e-07
5.2991e-07
5.30889e-07
5.31872e-07
5.32858e-07
5.33848e-07
5.34841e-07
5.35838e-07
5.36838e-07
5.37841e-07
5.38848e-07
5.39859e-07
5.40873e-07
5.41891e-07
5.42912e-07
5.43936e-07
5.44965e-07
5.45997e-07
5.47032e-07
5.48072e-07
5.49114e-07
5.50161e-07
5.51211e-07
5.52265e-07
5.53323e-07
5.54385e-07
5.5545e-07
5.56519e-07
5.57592e-07
5.58669e-07
5.59749e-07
5.60834e-07
5.61923e-07
5.63015e-07
5.64111e-07
5.65212e-07
5.66316e-07
5.67425e-07
5.68537e-07
5.69654e-07
5.70775e-07
5.719e-07
5.73029e-07
5.74162e-07
5.753e-07
5.76442e-07
5.77588e-07
5.78739e-07
5.79894e-07
5.81053e-07
5.82217e-07
5.83385e-07
5.84558e-07
5.85736e-07
5.86918e-07
5.88104e-07
5.89295e-07
5.90491e-07
5.91692e-07
5.92897e-07
5.94106e-07
5.95311e-07
5.96531e-07
5.97756e-07
5.98986e-07
6.00221e-07
6.01461e-07
6.02706e-07
6.03956e-07
6.05211e-07
6.06471e-07
6.07737e-07
6.09007e-07
6.10283e-07
6.11564e-07
6.12851e-07
6.14142e-07
6.1544e-07
6.16742e-07
6.1805e-07
6.19363e-07
6.20682e-07
6.22007e-07
6.23337e-07
6.24672e-07
6.26013e-07
6.2736e-07
6.28712e-07
6.3007e-07
6.31434e-07
6.32804e-07
6.34179e-07
6.3556e-07
6.36947e-07
6.3834e-07
6.39739e-07
6.41144e-07
6.42554e-07
6.43971e-07
6.45394e-07
6.46823e-07
6.48258e-07
6.49699e-07
6.51146e-07
6.52599e-07
6.54059e-07
6.55525e-07
6.56997e-07
6.58476e-07
6.59961e-07
6.61452e-07
6.6295e-07
6.64455e-07
6.65966e-07
6.67484e-07
6.69008e-07
6.7054e-07
6.72078e-07
6.73622e-07
6.75174e-07
6.76733e-07
6.78298e-07
6.79871e-07
6.81451e-07
6.83038e-07
6.84632e-07
6.86234e-07
6.87843e-07
6.89459e-07
6.91083e-07
6.92715e-07
6.94354e-07
6.96001e-07
6.97656e-07
6.99318e-07
7.00989e-07
7.02668e-07
7.04354e-07
7.06049e-07
7.07752e-07
7.09464e-07
7.11184e-07
7.12913e-07
7.1465e-07
7.16396e-07
7.1815e-07
7.19914e-07
7.21687e-07
7.23468e-07
7.25259e-07
7.27059e-07
7.28868e-07
7.30687e-07
7.32515e-07
7.34353e-07
7.36201e-07
7.38058e-07
7.39925e-07
7.41803e-07
7.4369e-07
7.45572e-07
7.47464e-07
7.49382e-07
7.51311e-07
7.5325e-07
7.55199e-07
7.57158e-07
7.59128e-07
7.61109e-07
7.631e-07
7.65102e-07
7.67116e-07
7.6914e-07
7.71175e-07
7.73221e-07
7.75278e-07
7.77346e-07
7.79426e-07
7.81517e-07
7.83619e-07
7.85733e-07
7.87858e-07
7.89995e-07
7.92143e-07
7.94303e-07
7.96475e-07
7.98658e-07
8.00853e-07
8.0306e-07
8.05279e-07
8.07509e-07
8.09752e-07
8.12007e-07
8.14273e-07
8.16552e-07
8.18843e-07
8.21146e-07
8.23462e-07
8.2579e-07
8.2813e-07
8.30483e-07
8.32849e-07
8.35227e-07
8.37618e-07
8.40023e-07
8.4244e-07
8.44871e-07
8.47305e-07
8.49741e-07
8.52213e-07
8.54698e-07
8.57196e-07
8.59709e-07
8.62236e-07
8.64777e-07
8.67332e-07
8.69902e-07
8.72487e-07
8.75087e-07
8.77702e-07
8.80332e-07
8.82978e-07
8.8564e-07
8.88317e-07
8.91011e-07
8.93721e-07
8.96448e-07
8.99191e-07
9.01951e-07
9.04728e-07
9.07523e-07
9.10335e-07
9.13165e-07
9.16013e-07
9.18879e-07
9.21764e-07
9.24666e-07
9.27588e-07
9.30528e-07
9.33488e-07
9.36467e-07
9.39465e-07
9.42483e-07
9.45521e-07
9.48579e-07
9.51658e-07
9.54756e-07
9.57875e-07
9.61015e-07
9.64176e-07
9.67358e-07
9.70562e-07
9.73787e-07
9.77033e-07
9.80294e-07
9.83557e-07
9.86873e-07
9.90211e-07
9.93572e-07
9.96956e-07
1.00036e-06
1.00379e-06
1.00724e-06
1.01072e-06
1.01422e-06
1.01775e-06
1.02129e-06
1.02487e-06
1.02846e-06
1.03209e-06
1.03573e-06
1.03941e-06
1.04311e-06
1.04683e-06
1.05058e-06
1.05436e-06
1.05817e-06
1.062e-06
1.06584e-06
1.0697e-06
1.07361e-06
1.07756e-06
1.08153e-06
1.08553e-06
1.08956e-06
1.09362e-06
1.09771e-06
1.10183e-06
1.10598e-06
1.11016e-06
1.11437e-06
1.11861e-06
1.12289e-06
1.1272e-06
1.13154e-06
1.13592e-06
1.14033e-06
1.14477e-06
1.14925e-06
1.15377e-06
1.15832e-06
1.1629e-06
1.16752e-06
1.17214e-06
1.17683e-06
1.18156e-06
1.18633e-06
1.19114e-06
1.19598e-06
1.20087e-06
1.2058e-06
1.21077e-06
1.21579e-06
1.22084e-06
1.22594e-06
1.23108e-06
1.23627e-06
1.2415e-06
1.24678e-06
1.2521e-06
1.25747e-06
1.26289e-06
1.26836e-06
1.27387e-06
1.27943e-06
1.28505e-06
1.29071e-06
1.29643e-06
1.30219e-06
1.30801e-06
1.31388e-06
1.31981e-06
1.32579e-06
1.33182e-06
1.33791e-06
1.34406e-06
1.35026e-06
1.35652e-06
1.36284e-06
1.36921e-06
1.37565e-06
1.38214e-06
1.38869e-06
1.39531e-06
1.40198e-06
1.40872e-06
1.41551e-06
1.42231e-06
1.42924e-06
1.43623e-06
1.44328e-06
1.4504e-06
1.45759e-06
1.46485e-06
1.47218e-06
1.47958e-06
1.48705e-06
1.49459e-06
1.50221e-06
1.5099e-06
1.51767e-06
1.52552e-06
1.53344e-06
1.54145e-06
1.54953e-06
1.5577e-06
1.56596e-06
1.5743e-06
1.58272e-06
1.59124e-06
1.59985e-06
1.60855e-06
1.61735e-06
1.62624e-06
1.63523e-06
1.64432e-06
1.65351e-06
1.66281e-06
1.67222e-06
1.68173e-06
1.69135e-06
1.70109e-06
1.71095e-06
1.72092e-06
1.73101e-06
1.74123e-06
1.75153e-06
1.76191e-06
1.77251e-06
1.78324e-06
1.79411e-06
1.80511e-06
1.81626e-06
1.82754e-06
1.83897e-06
1.85055e-06
1.86228e-06
1.87417e-06
1.88621e-06
1.89841e-06
1.91076e-06
1.92329e-06
1.93597e-06
1.94883e-06
1.96185e-06
1.97505e-06
1.98843e-06
2.00198e-06
2.01572e-06
2.02964e-06
2.04374e-06
2.05804e-06
2.07253e-06
2.08721e-06
2.1021e-06
2.11718e-06
2.13248e-06
2.14799e-06
2.16365e-06
2.17946e-06
2.19563e-06
2.21202e-06
2.22865e-06
2.24553e-06
2.26264e-06
2.28001e-06
2.29765e-06
2.31554e-06
2.33372e-06
2.35217e-06
2.37092e-06
2.38997e-06
2.40932e-06
2.42899e-06
2.44898e-06
2.46931e-06
2.48999e-06
2.51102e-06
2.53241e-06
2.55419e-06
2.57635e-06
2.5989e-06
2.62187e-06
2.64526e-06
2.66896e-06
2.69301e-06
2.71773e-06
2.74291e-06
2.76857e-06
2.79471e-06
2.82136e-06
2.84853e-06
2.87623e-06
2.90447e-06
2.93328e-06
2.96267e-06
2.99265e-06
3.02325e-06
3.05447e-06
3.08634e-06
3.11889e-06
3.15212e-06
3.18606e-06
3.22073e-06
3.25615e-06
3.29236e-06
3.32936e-06
3.36719e-06
3.40588e-06
3.44545e-06
3.48594e-06
3.52736e-06
3.56977e-06
3.61318e-06
3.65764e-06
3.70319e-06
3.74987e-06
3.79771e-06
3.84677e-06
3.8971e-06
3.94874e-06
4.00176e-06
4.0562e-06
4.11214e-06
4.16962e-06
4.22873e-06
4.28953e-06
4.3521e-06
4.41652e-06
4.48287e-06
4.55124e-06
4.62174e-06
4.69446e-06
4.76953e-06
4.84708e-06
4.92708e-06
5.00911e-06
5.0944e-06
5.18256e-06
5.27377e-06
5.36816e-06
5.46589e-06
5.5671e-06
5.67198e-06
5.7807e-06
5.89347e-06
6.01051e-06
6.13206e-06
6.25839e-06
6.38978e-06
6.52657e-06
6.6691e-06
6.81777e-06
6.97302e-06
7.13531e-06
7.30518e-06
7.48318e-06
7.66996e-06
7.86618e-06
8.0726e-06
8.29004e-06
8.51942e-06
8.76175e-06
9.01814e-06
9.28985e-06
9.57826e-06
9.88283e-06
1.02067e-05
1.05552e-05
1.09277e-05
1.13267e-05
1.17552e-05
1.22163e-05
1.27142e-05
1.32532e-05
1.38386e-05
1.44767e-05
1.51747e-05
1.59413e-05
1.67865e-05
1.77223e-05
1.87631e-05
1.99262e-05
2.12328e-05
2.27095e-05
2.43903e-05
2.63194e-05
2.85562e-05
3.11808e-05
3.43039e-05
3.80791e-05
4.27231e-05
4.85519e-05
5.60508e-05
6.60139e-05
7.98245e-05
0.000100034
0.000131655
0.000185385
0.000286698
0.000505402
0.00107181
0.00285059
0.00941037
0.0462166
0.0744962
0.0888171
0.0959809
0.09956
0.101349
0.102244
0.102692
0.102916
0.103027
0.103083
0.103111
0.103125
0.103132
0.103136
0.103137
0.103138
0.103139
0.103139
0.103139
0.103139
0.103139
0.103139
0.103139
0.103139
0.103139
0.103139
0.103139
0.103139
0.103139
0.103139
0.103139
0.103139
0.103139
0.103139
0.103139
0.103139
0.103139
0.103139
0.103139
0.103139
0.103139
0.103139
0.103139
0.103139
0.103139
0.103139
0.103139
0.103139
0.103139
0.103139
0.103139
0.103139
0.103139
0.103139
0.103139
0.103139
0.103139
0.103139
0.103139
0.103139
0.103139
0.103139
0.103139
0.103139
0.103139
0.103139
0.103139
0.103139
0.103139
0.103139
0.103139
0.103139
0.103139
0.103139
0.103139
0.103139
0.103139
0.103139
0.103139
0.103139
0.103139
0.103139
0.103139
0.103139
0.103139
0.103139
0.103139
0.103139
0.103139
0.103139
0.103139
0.103139
0.103139
0.103139
0.103139
0.103139
0.103139
0.103139
0.103139
0.103139
0.103139
0.103139
0.103139
0.103139
0.103139
0.103139
0.103139
0.103139
0.103139
0.103139
0.103139
0.103139
0.103139
0.103139
0.103139
0.103139
0.103139
0.103139
0.103139
0.103139
0.103139
0.103139
0.103139
0.103139
0.103139
0.103139
0.103139
0.103139
0.103139
0.103139
0.103139
0.103139
0.103139
0.103139
0.103139
0.103139
0.103139
0.103139
0.103139
0.103139
0.103139
0.103139
0.103139
0.103139
0.103139
0.103139
0.103139
0.103139
0.103139
0.103139
0.103139
0.103139
0.103139
0.103139
0.103139
0.103139
0.103139
0.103139
0.103139
0.103139
0.103139
0.103139
0.103139
0.103139
0.103139
0.103139
0.103139
0.103139
0.103139
0.103139
0.103139
0.103139
0.103139
0.103139
0.103139
0.103139
0.103139
0.103139
0.103139
0.103139
0.103139
0.103139
0.103139
0.103139
0.103139
0.103139
0.103139
0.103139
0.103139
0.103139
0.103139
0.103139
0.103139
0.103139
0.103139
0.103139
0.103139
)
;

boundaryField
{
    fixedWall
    {
        type            zeroGradient;
    }
    outlet
    {
        type            inletOutlet;
        inletValue      uniform 0;
        value           uniform 0.103139;
    }
    defaultFaces
    {
        type            empty;
    }
}


// ************************************************************************* //
