/*--------------------------------*- C++ -*----------------------------------*\
| =========                 |                                                 |
| \\      /  F ield         | OpenFOAM: The Open Source CFD Toolbox           |
|  \\    /   O peration     | Version:  2406                                  |
|   \\  /    A nd           | Website:  www.openfoam.com                      |
|    \\/     M anipulation  |                                                 |
\*---------------------------------------------------------------------------*/
FoamFile
{
    version     2.0;
    format      ascii;
    arch        "LSB;label=32;scalar=64";
    class       surfaceScalarField;
    location    "5";
    object      phi;
}
// * * * * * * * * * * * * * * * * * * * * * * * * * * * * * * * * * * * * * //

dimensions      [1 0 -1 0 0 0 0];

oriented        oriented;

internalField   nonuniform List<scalar> 
999
(
-5.21563e-08
-1.63947e-07
-3.06405e-07
-4.64971e-07
-6.31715e-07
-8.02085e-07
-9.73351e-07
-1.14383e-06
-1.31248e-06
-1.47863e-06
-1.64189e-06
-1.80199e-06
-1.95881e-06
-2.11225e-06
-2.26231e-06
-2.40898e-06
-2.55229e-06
-2.69229e-06
-2.82901e-06
-2.96253e-06
-3.09288e-06
-3.22014e-06
-3.34436e-06
-3.46561e-06
-3.58394e-06
-3.6994e-06
-3.81206e-06
-3.92197e-06
-4.02917e-06
-4.13373e-06
-4.23569e-06
-4.3351e-06
-4.432e-06
-4.52645e-06
-4.61848e-06
-4.70813e-06
-4.79545e-06
-4.88049e-06
-4.96327e-06
-5.04384e-06
-5.12224e-06
-5.1985e-06
-5.27267e-06
-5.34477e-06
-5.41484e-06
-5.48293e-06
-5.54905e-06
-5.61326e-06
-5.67558e-06
-5.73605e-06
-5.7947e-06
-5.85157e-06
-5.90668e-06
-5.96008e-06
-6.01179e-06
-6.06185e-06
-6.1103e-06
-6.15715e-06
-6.20245e-06
-6.24623e-06
-6.28853e-06
-6.32936e-06
-6.36877e-06
-6.40679e-06
-6.44345e-06
-6.47878e-06
-6.51282e-06
-6.54558e-06
-6.57712e-06
-6.60744e-06
-6.6366e-06
-6.66462e-06
-6.69152e-06
-6.71734e-06
-6.74211e-06
-6.76586e-06
-6.78862e-06
-6.81042e-06
-6.83128e-06
-6.85123e-06
-6.87031e-06
-6.88854e-06
-6.90594e-06
-6.92255e-06
-6.93839e-06
-6.95349e-06
-6.96787e-06
-6.98156e-06
-6.99459e-06
-7.00697e-06
-7.01873e-06
-7.02989e-06
-7.04048e-06
-7.05052e-06
-7.06003e-06
-7.069e-06
-7.07739e-06
-7.08556e-06
-7.09316e-06
-7.1002e-06
-7.10703e-06
-7.11345e-06
-7.11948e-06
-7.12514e-06
-7.13046e-06
-7.13545e-06
-7.14013e-06
-7.14452e-06
-7.14863e-06
-7.15247e-06
-7.15606e-06
-7.15941e-06
-7.16254e-06
-7.16545e-06
-7.16815e-06
-7.17067e-06
-7.173e-06
-7.17516e-06
-7.17715e-06
-7.17899e-06
-7.18069e-06
-7.18225e-06
-7.18369e-06
-7.185e-06
-7.1862e-06
-7.18729e-06
-7.18828e-06
-7.18918e-06
-7.18999e-06
-7.19072e-06
-7.19137e-06
-7.19195e-06
-7.19246e-06
-7.19291e-06
-7.1933e-06
-7.19364e-06
-7.19393e-06
-7.19416e-06
-7.19436e-06
-7.19451e-06
-7.19463e-06
-7.19471e-06
-7.19476e-06
-7.19478e-06
-7.19477e-06
-7.19473e-06
-7.19467e-06
-7.19459e-06
-7.19449e-06
-7.19438e-06
-7.19424e-06
-7.19409e-06
-7.19393e-06
-7.19375e-06
-7.19356e-06
-7.19336e-06
-7.19315e-06
-7.19293e-06
-7.1927e-06
-7.19247e-06
-7.19222e-06
-7.19198e-06
-7.19172e-06
-7.19146e-06
-7.1912e-06
-7.19093e-06
-7.19066e-06
-7.19039e-06
-7.19011e-06
-7.18983e-06
-7.18955e-06
-7.18927e-06
-7.18898e-06
-7.18869e-06
-7.1884e-06
-7.18811e-06
-7.18782e-06
-7.18753e-06
-7.18724e-06
-7.18694e-06
-7.18665e-06
-7.18635e-06
-7.18606e-06
-7.18576e-06
-7.18547e-06
-7.18517e-06
-7.18487e-06
-7.18457e-06
-7.18427e-06
-7.18398e-06
-7.18368e-06
-7.18338e-06
-7.18308e-06
-7.18278e-06
-7.18248e-06
-7.18218e-06
-7.18188e-06
-7.18158e-06
-7.18128e-06
-7.18098e-06
-7.18068e-06
-7.18038e-06
-7.18008e-06
-7.17978e-06
-7.17948e-06
-7.17918e-06
-7.17888e-06
-7.17857e-06
-7.17827e-06
-7.17797e-06
-7.17766e-06
-7.17736e-06
-7.17706e-06
-7.17675e-06
-7.17645e-06
-7.17614e-06
-7.17584e-06
-7.17553e-06
-7.17522e-06
-7.17492e-06
-7.17461e-06
-7.1743e-06
-7.17399e-06
-7.17368e-06
-7.17337e-06
-7.17306e-06
-7.17275e-06
-7.17244e-06
-7.17213e-06
-7.17182e-06
-7.17151e-06
-7.17119e-06
-7.17088e-06
-7.17057e-06
-7.17025e-06
-7.16994e-06
-7.16962e-06
-7.1693e-06
-7.16899e-06
-7.16867e-06
-7.16835e-06
-7.16803e-06
-7.16772e-06
-7.1674e-06
-7.16708e-06
-7.16676e-06
-7.16643e-06
-7.16611e-06
-7.16579e-06
-7.16547e-06
-7.16514e-06
-7.16482e-06
-7.1645e-06
-7.16417e-06
-7.16385e-06
-7.16352e-06
-7.1632e-06
-7.16287e-06
-7.16254e-06
-7.16221e-06
-7.16189e-06
-7.16156e-06
-7.16123e-06
-7.1609e-06
-7.16057e-06
-7.16024e-06
-7.15991e-06
-7.15958e-06
-7.15925e-06
-7.15892e-06
-7.15859e-06
-7.15826e-06
-7.15792e-06
-7.15759e-06
-7.15726e-06
-7.15693e-06
-7.15659e-06
-7.15626e-06
-7.15593e-06
-7.15559e-06
-7.15526e-06
-7.15492e-06
-7.15459e-06
-7.15426e-06
-7.15392e-06
-7.15359e-06
-7.15325e-06
-7.15292e-06
-7.15258e-06
-7.15225e-06
-7.15191e-06
-7.15158e-06
-7.15124e-06
-7.15091e-06
-7.15057e-06
-7.15024e-06
-7.1499e-06
-7.14956e-06
-7.14923e-06
-7.14889e-06
-7.14856e-06
-7.14822e-06
-7.14788e-06
-7.14755e-06
-7.14721e-06
-7.14688e-06
-7.14654e-06
-7.14621e-06
-7.14587e-06
-7.14553e-06
-7.1452e-06
-7.14486e-06
-7.14452e-06
-7.14419e-06
-7.14385e-06
-7.14351e-06
-7.14318e-06
-7.14284e-06
-7.1425e-06
-7.14217e-06
-7.14183e-06
-7.14149e-06
-7.14116e-06
-7.14082e-06
-7.14048e-06
-7.14014e-06
-7.1398e-06
-7.13947e-06
-7.13913e-06
-7.13879e-06
-7.13845e-06
-7.13811e-06
-7.13778e-06
-7.13744e-06
-7.1371e-06
-7.13676e-06
-7.13642e-06
-7.13608e-06
-7.13574e-06
-7.13541e-06
-7.13507e-06
-7.13473e-06
-7.13439e-06
-7.13405e-06
-7.13371e-06
-7.13337e-06
-7.13303e-06
-7.13269e-06
-7.13236e-06
-7.13202e-06
-7.13168e-06
-7.13134e-06
-7.131e-06
-7.13067e-06
-7.13033e-06
-7.12999e-06
-7.12966e-06
-7.12932e-06
-7.12898e-06
-7.12865e-06
-7.12831e-06
-7.12798e-06
-7.12764e-06
-7.12731e-06
-7.12698e-06
-7.12665e-06
-7.12632e-06
-7.12598e-06
-7.12566e-06
-7.12533e-06
-7.125e-06
-7.12467e-06
-7.12434e-06
-7.12402e-06
-7.12369e-06
-7.12337e-06
-7.12304e-06
-7.12272e-06
-7.1224e-06
-7.12208e-06
-7.12176e-06
-7.12144e-06
-7.12112e-06
-7.1208e-06
-7.12049e-06
-7.12017e-06
-7.11986e-06
-7.11954e-06
-7.11923e-06
-7.11892e-06
-7.1186e-06
-7.11829e-06
-7.11798e-06
-7.11767e-06
-7.11736e-06
-7.11705e-06
-7.11674e-06
-7.11643e-06
-7.11612e-06
-7.11581e-06
-7.1155e-06
-7.11519e-06
-7.11489e-06
-7.11458e-06
-7.11427e-06
-7.11396e-06
-7.11365e-06
-7.11334e-06
-7.11302e-06
-7.11271e-06
-7.1124e-06
-7.11208e-06
-7.11177e-06
-7.11145e-06
-7.11114e-06
-7.11082e-06
-7.1105e-06
-7.11018e-06
-7.10985e-06
-7.10953e-06
-7.1092e-06
-7.10887e-06
-7.10854e-06
-7.10821e-06
-7.10788e-06
-7.10755e-06
-7.10721e-06
-7.10687e-06
-7.10653e-06
-7.10619e-06
-7.10585e-06
-7.10551e-06
-7.10516e-06
-7.10481e-06
-7.10447e-06
-7.10412e-06
-7.10376e-06
-7.10341e-06
-7.10306e-06
-7.1027e-06
-7.10235e-06
-7.10199e-06
-7.10163e-06
-7.10128e-06
-7.10092e-06
-7.10056e-06
-7.1002e-06
-7.09984e-06
-7.09948e-06
-7.09913e-06
-7.09877e-06
-7.09841e-06
-7.09805e-06
-7.0977e-06
-7.09734e-06
-7.09699e-06
-7.09663e-06
-7.09628e-06
-7.09592e-06
-7.09557e-06
-7.09522e-06
-7.09487e-06
-7.09453e-06
-7.09418e-06
-7.09384e-06
-7.09349e-06
-7.09315e-06
-7.09281e-06
-7.09247e-06
-7.09213e-06
-7.09179e-06
-7.09145e-06
-7.09112e-06
-7.09078e-06
-7.09045e-06
-7.09011e-06
-7.08978e-06
-7.08945e-06
-7.08912e-06
-7.08879e-06
-7.08845e-06
-7.08812e-06
-7.08779e-06
-7.08746e-06
-7.08713e-06
-7.0868e-06
-7.08647e-06
-7.08614e-06
-7.08581e-06
-7.08548e-06
-7.08515e-06
-7.08481e-06
-7.08448e-06
-7.08414e-06
-7.08381e-06
-7.08347e-06
-7.08314e-06
-7.0828e-06
-7.08246e-06
-7.08212e-06
-7.08178e-06
-7.08144e-06
-7.0811e-06
-7.08075e-06
-7.08041e-06
-7.08006e-06
-7.07972e-06
-7.07937e-06
-7.07902e-06
-7.07867e-06
-7.07832e-06
-7.07797e-06
-7.07762e-06
-7.07727e-06
-7.07692e-06
-7.07656e-06
-7.07621e-06
-7.07586e-06
-7.07551e-06
-7.07515e-06
-7.0748e-06
-7.07444e-06
-7.07409e-06
-7.07374e-06
-7.07338e-06
-7.07303e-06
-7.07268e-06
-7.07232e-06
-7.07197e-06
-7.07162e-06
-7.07127e-06
-7.07092e-06
-7.07057e-06
-7.07022e-06
-7.06987e-06
-7.06953e-06
-7.06918e-06
-7.06884e-06
-7.06849e-06
-7.06815e-06
-7.06781e-06
-7.06747e-06
-7.06713e-06
-7.0668e-06
-7.06646e-06
-7.06613e-06
-7.06579e-06
-7.06546e-06
-7.06513e-06
-7.0648e-06
-7.06447e-06
-7.06414e-06
-7.06381e-06
-7.06348e-06
-7.06316e-06
-7.06283e-06
-7.0625e-06
-7.06217e-06
-7.06184e-06
-7.06151e-06
-7.06118e-06
-7.06084e-06
-7.06051e-06
-7.06017e-06
-7.05983e-06
-7.05949e-06
-7.05914e-06
-7.0588e-06
-7.05845e-06
-7.05809e-06
-7.05774e-06
-7.05738e-06
-7.05701e-06
-7.05664e-06
-7.05627e-06
-7.0559e-06
-7.05552e-06
-7.05513e-06
-7.05474e-06
-7.05435e-06
-7.05396e-06
-7.05356e-06
-7.05315e-06
-7.05275e-06
-7.05233e-06
-7.05192e-06
-7.05151e-06
-7.05109e-06
-7.05067e-06
-7.05025e-06
-7.04982e-06
-7.0494e-06
-7.04897e-06
-7.04855e-06
-7.04812e-06
-7.0477e-06
-7.04728e-06
-7.04685e-06
-7.04644e-06
-7.04602e-06
-7.04561e-06
-7.0452e-06
-7.04479e-06
-7.04439e-06
-7.04399e-06
-7.0436e-06
-7.04321e-06
-7.04283e-06
-7.04246e-06
-7.04209e-06
-7.04172e-06
-7.04137e-06
-7.04102e-06
-7.04067e-06
-7.04033e-06
-7.04e-06
-7.03968e-06
-7.03936e-06
-7.03905e-06
-7.03874e-06
-7.03844e-06
-7.03814e-06
-7.03785e-06
-7.03756e-06
-7.03727e-06
-7.03699e-06
-7.0367e-06
-7.03642e-06
-7.03614e-06
-7.03586e-06
-7.03557e-06
-7.03529e-06
-7.03499e-06
-7.0347e-06
-7.0344e-06
-7.03409e-06
-7.03378e-06
-7.03346e-06
-7.03313e-06
-7.03279e-06
-7.03244e-06
-7.03207e-06
-7.0317e-06
-7.03132e-06
-7.03093e-06
-7.03052e-06
-7.0301e-06
-7.02967e-06
-7.02923e-06
-7.02877e-06
-7.02831e-06
-7.02784e-06
-7.02736e-06
-7.02687e-06
-7.02637e-06
-7.02587e-06
-7.02537e-06
-7.02486e-06
-7.02435e-06
-7.02384e-06
-7.02333e-06
-7.02283e-06
-7.02233e-06
-7.02184e-06
-7.02135e-06
-7.02087e-06
-7.02041e-06
-7.01995e-06
-7.01951e-06
-7.01908e-06
-7.01866e-06
-7.01825e-06
-7.01786e-06
-7.01748e-06
-7.01712e-06
-7.01677e-06
-7.01643e-06
-7.0161e-06
-7.01579e-06
-7.01548e-06
-7.01518e-06
-7.01488e-06
-7.0146e-06
-7.01431e-06
-7.01403e-06
-7.01375e-06
-7.01346e-06
-7.01317e-06
-7.01288e-06
-7.01259e-06
-7.01228e-06
-7.01197e-06
-7.01165e-06
-7.01132e-06
-7.01098e-06
-7.01063e-06
-7.01026e-06
-7.00988e-06
-7.00949e-06
-7.00909e-06
-7.00867e-06
-7.00824e-06
-7.00779e-06
-7.00733e-06
-7.00686e-06
-7.00638e-06
-7.00589e-06
-7.00538e-06
-7.00486e-06
-7.00434e-06
-7.00381e-06
-7.00327e-06
-7.00273e-06
-7.00218e-06
-7.00163e-06
-7.00107e-06
-7.00052e-06
-6.99997e-06
-6.99942e-06
-6.99887e-06
-6.99833e-06
-6.99779e-06
-6.99725e-06
-6.99671e-06
-6.99617e-06
-6.99564e-06
-6.9951e-06
-6.99455e-06
-6.99401e-06
-6.99345e-06
-6.99289e-06
-6.99231e-06
-6.99171e-06
-6.9911e-06
-6.99046e-06
-6.9898e-06
-6.98911e-06
-6.98838e-06
-6.98763e-06
-6.98683e-06
-6.98599e-06
-6.98512e-06
-6.9842e-06
-6.98324e-06
-6.98225e-06
-6.98122e-06
-6.98017e-06
-6.9791e-06
-6.97802e-06
-6.97693e-06
-6.97586e-06
-6.97482e-06
-6.9738e-06
-6.97282e-06
-6.97189e-06
-6.97102e-06
-6.97021e-06
-6.96945e-06
-6.96876e-06
-6.96812e-06
-6.96753e-06
-6.96698e-06
-6.96647e-06
-6.96598e-06
-6.9655e-06
-6.96502e-06
-6.96451e-06
-6.96396e-06
-6.96335e-06
-6.96264e-06
-6.96182e-06
-6.96087e-06
-6.95977e-06
-6.95851e-06
-6.95708e-06
-6.95547e-06
-6.95364e-06
-6.95154e-06
-6.9491e-06
-6.94618e-06
-6.94264e-06
-6.93828e-06
-6.9329e-06
-6.92634e-06
-6.91849e-06
-6.90937e-06
-6.89911e-06
-6.88793e-06
-6.87601e-06
-6.86324e-06
-6.84889e-06
-6.83126e-06
-6.80769e-06
-6.7749e-06
-6.72863e-06
-6.65814e-06
-6.52315e-06
-6.17277e-06
-5.06557e-06
-1.25159e-06
1.2778e-05
7.82551e-05
0.000232745
0.000407157
0.000570417
0.000697923
0.000784208
0.000837185
0.000867816
0.000884917
0.000894278
0.000899346
0.000902074
0.000903538
0.000904323
0.000904743
0.000904968
0.000905089
0.000905154
0.000905189
0.000905208
0.000905219
0.000905226
0.000905229
0.000905232
0.000905234
0.000905235
0.000905237
0.000905238
0.000905239
0.00090524
0.000905241
0.000905242
0.000905243
0.000905244
0.000905245
0.000905246
0.000905247
0.000905248
0.000905249
0.00090525
0.000905251
0.000905252
0.000905253
0.000905253
0.000905254
0.000905255
0.000905256
0.000905257
0.000905258
0.000905259
0.00090526
0.000905261
0.000905261
0.000905262
0.000905263
0.000905264
0.000905265
0.000905266
0.000905266
0.000905267
0.000905268
0.000905269
0.000905269
0.00090527
0.000905271
0.000905272
0.000905272
0.000905273
0.000905274
0.000905275
0.000905275
0.000905276
0.000905277
0.000905278
0.000905278
0.000905279
0.00090528
0.00090528
0.000905281
0.000905282
0.000905282
0.000905283
0.000905284
0.000905284
0.000905285
0.000905286
0.000905286
0.000905287
0.000905287
0.000905288
0.000905289
0.000905289
0.00090529
0.00090529
0.000905291
0.000905291
0.000905292
0.000905292
0.000905293
0.000905293
0.000905294
0.000905294
0.000905295
0.000905295
0.000905296
0.000905296
0.000905297
0.000905297
0.000905297
0.000905298
0.000905298
0.000905299
0.000905299
0.0009053
0.0009053
0.0009053
0.000905301
0.000905301
0.000905302
0.000905302
0.000905302
0.000905303
0.000905303
0.000905303
0.000905304
0.000905304
0.000905304
0.000905305
0.000905305
0.000905305
0.000905306
0.000905306
0.000905306
0.000905306
0.000905307
0.000905307
0.000905307
0.000905307
0.000905308
0.000905308
0.000905308
0.000905308
0.000905309
0.000905309
0.000905309
0.000905309
0.000905309
0.000905309
0.00090531
0.00090531
0.00090531
0.00090531
0.00090531
0.00090531
0.00090531
0.00090531
0.00090531
0.000905311
0.000905311
0.000905311
0.000905311
0.000905311
0.000905311
0.000905311
0.000905311
0.000905311
0.000905311
0.000905311
0.000905311
0.000905311
0.000905311
0.000905311
0.000905311
0.000905311
0.000905311
0.000905311
0.000905311
0.000905311
0.000905311
0.00090531
0.00090531
0.00090531
0.00090531
0.00090531
0.00090531
0.00090531
0.00090531
0.00090531
0.00090531
0.00090531
0.000905309
0.000905309
0.000905309
0.000905309
0.000905309
0.000905309
0.000905309
0.000905308
)
;

boundaryField
{
    fixedWall
    {
        type            calculated;
        value           uniform 0;
    }
    outlet
    {
        type            calculated;
        value           uniform 0.000905308;
    }
    defaultFaces
    {
        type            empty;
    }
}


// ************************************************************************* //
