/*--------------------------------*- C++ -*----------------------------------*\
| =========                 |                                                 |
| \\      /  F ield         | OpenFOAM: The Open Source CFD Toolbox           |
|  \\    /   O peration     | Version:  2406                                  |
|   \\  /    A nd           | Website:  www.openfoam.com                      |
|    \\/     M anipulation  |                                                 |
\*---------------------------------------------------------------------------*/
FoamFile
{
    version     2.0;
    format      ascii;
    arch        "LSB;label=32;scalar=64";
    class       volScalarField;
    location    "5";
    object      Qdot;
}
// * * * * * * * * * * * * * * * * * * * * * * * * * * * * * * * * * * * * * //

dimensions      [1 -1 -3 0 0 0 0];

internalField   nonuniform List<scalar> 
1000
(
2.93687e-08
-3.28681e-16
-7.93061e-15
7.71587e-08
3.72848e-07
1.70227e-06
6.45107e-06
2.03801e-05
5.50524e-05
0.000130705
0.000279204
0.000545838
0.000990764
0.00168807
0.00272428
0.00419432
0.00619732
0.00883143
0.0121882
0.0163475
0.0213731
0.0273086
0.0341754
0.0419713
0.0506698
0.0602221
0.0705582
0.0815902
0.0932158
0.105321
0.117786
0.130486
0.143298
0.156101
0.168783
0.181238
0.193372
0.205102
0.216358
0.227083
0.237232
0.246773
0.255685
0.263959
0.271593
0.278597
0.284985
0.290779
0.296005
0.300692
0.304875
0.308586
0.311863
0.314742
0.317258
0.319446
0.321341
0.322975
0.324379
0.325583
0.326613
0.327495
0.328251
0.328903
0.32947
0.329969
0.330416
0.330823
0.331204
0.331569
0.331927
0.332285
0.332651
0.33303
0.333428
0.333847
0.334291
0.334762
0.335263
0.335794
0.336356
0.33695
0.337576
0.338233
0.338922
0.339641
0.340389
0.341167
0.341972
0.342804
0.343661
0.344543
0.345447
0.346374
0.347321
0.348287
0.349271
0.350272
0.35129
0.352318
0.353361
0.354422
0.355495
0.356579
0.357673
0.358778
0.359891
0.361013
0.362142
0.36328
0.364424
0.365574
0.366731
0.367893
0.36906
0.370233
0.371411
0.372593
0.37378
0.374971
0.376166
0.377365
0.378568
0.379775
0.380986
0.382201
0.383419
0.384642
0.385868
0.387098
0.388331
0.389569
0.390811
0.392056
0.393306
0.394559
0.395817
0.397079
0.398346
0.399617
0.400892
0.402172
0.403456
0.404746
0.40604
0.407339
0.408643
0.409952
0.411266
0.412585
0.41391
0.41524
0.416576
0.417917
0.419264
0.420617
0.421976
0.42334
0.424711
0.426087
0.42747
0.428859
0.430246
0.43164
0.433051
0.434467
0.435889
0.437318
0.438753
0.440195
0.441644
0.443099
0.444561
0.446031
0.447507
0.44899
0.450481
0.451978
0.453483
0.454996
0.456515
0.458042
0.459577
0.461119
0.462669
0.464227
0.465792
0.467365
0.468946
0.470535
0.472131
0.473736
0.475349
0.47697
0.478599
0.480237
0.481882
0.483536
0.485199
0.48687
0.488549
0.490237
0.491934
0.493639
0.495353
0.497075
0.498807
0.500547
0.502297
0.504055
0.505822
0.507599
0.509385
0.511179
0.512984
0.514797
0.51662
0.518452
0.520294
0.522146
0.524007
0.525878
0.527758
0.529649
0.531549
0.533459
0.535379
0.53731
0.53925
0.541201
0.543162
0.545134
0.547115
0.549108
0.551111
0.553124
0.555148
0.557183
0.559229
0.561286
0.563354
0.565433
0.567523
0.569624
0.571737
0.573861
0.575996
0.578143
0.580302
0.582472
0.584654
0.586848
0.589054
0.591273
0.593503
0.595745
0.598
0.600267
0.602547
0.604839
0.607144
0.609461
0.611792
0.614135
0.616492
0.618862
0.621245
0.623641
0.626051
0.628474
0.630911
0.633362
0.635827
0.638306
0.640799
0.643307
0.645828
0.648364
0.650915
0.653481
0.656061
0.658656
0.661267
0.663893
0.666534
0.669191
0.671863
0.674551
0.677255
0.679975
0.682711
0.685464
0.688233
0.691019
0.693822
0.696641
0.699478
0.702331
0.705201
0.708065
0.710972
0.713897
0.71684
0.719801
0.72278
0.725778
0.728795
0.73183
0.734885
0.737958
0.741051
0.744163
0.747295
0.750447
0.753618
0.75681
0.760021
0.763254
0.766506
0.76978
0.773074
0.77639
0.779726
0.783084
0.786464
0.789865
0.793288
0.796733
0.8002
0.80369
0.807202
0.810737
0.814295
0.817876
0.82148
0.825108
0.82876
0.832435
0.836134
0.839858
0.843605
0.847378
0.851175
0.854998
0.858845
0.862718
0.866617
0.870541
0.874492
0.878469
0.882473
0.886503
0.89056
0.894645
0.898757
0.902897
0.907065
0.911262
0.915487
0.919741
0.924024
0.928336
0.932678
0.937051
0.941453
0.945887
0.950351
0.954846
0.959374
0.963933
0.968524
0.973148
0.977805
0.982495
0.987219
0.991977
0.99677
1.0016
1.00646
1.01136
1.01629
1.02126
1.02627
1.03131
1.0364
1.04152
1.04668
1.05187
1.05711
1.06239
1.0677
1.07306
1.07846
1.0839
1.08938
1.09491
1.10048
1.10609
1.1117
1.11735
1.1231
1.12889
1.13473
1.14061
1.14654
1.15251
1.15853
1.16461
1.17072
1.17689
1.18311
1.18938
1.19569
1.20206
1.20848
1.21495
1.22148
1.22806
1.23469
1.24137
1.24811
1.2549
1.26175
1.26865
1.27561
1.28263
1.28971
1.29684
1.30403
1.31128
1.31859
1.32596
1.33339
1.34088
1.34843
1.35604
1.36372
1.37146
1.37927
1.38714
1.39507
1.40308
1.41115
1.41929
1.42749
1.43573
1.44401
1.45243
1.46092
1.46948
1.47812
1.48683
1.49562
1.50448
1.51343
1.52245
1.53155
1.54073
1.54999
1.55934
1.56877
1.57829
1.58789
1.59758
1.60736
1.61723
1.62719
1.63725
1.6474
1.65764
1.66798
1.67842
1.68896
1.6996
1.71034
1.72118
1.73213
1.74318
1.75434
1.76561
1.77699
1.78848
1.80008
1.8118
1.82363
1.83558
1.84765
1.85984
1.87215
1.88459
1.89714
1.90983
1.9226
1.93544
1.94853
1.96175
1.9751
1.98859
2.00221
2.01597
2.02988
2.04392
2.05812
2.07246
2.08695
2.10158
2.11638
2.13133
2.14643
2.1617
2.17712
2.19272
2.20848
2.2244
2.2405
2.25678
2.27316
2.28965
2.30646
2.32345
2.34063
2.358
2.37555
2.39331
2.41126
2.42941
2.44777
2.46633
2.48511
2.5041
2.52331
2.54274
2.56239
2.58227
2.60239
2.62274
2.64333
2.66416
2.68524
2.70658
2.72813
2.74979
2.77187
2.79422
2.81684
2.83974
2.86293
2.8864
2.91017
2.93423
2.9586
2.98327
3.00825
3.03356
3.05919
3.08515
3.11144
3.13808
3.16507
3.19241
3.22011
3.24818
3.27662
3.30544
3.33465
3.36425
3.39425
3.42466
3.45548
3.48672
3.51839
3.5505
3.58305
3.61605
3.64951
3.68343
3.71783
3.75271
3.78808
3.82395
3.86033
3.89722
3.93463
3.97258
4.01101
4.04971
4.0893
4.12944
4.17018
4.21151
4.25345
4.29601
4.3392
4.38303
4.42751
4.47266
4.5185
4.56502
4.61225
4.66021
4.7089
4.75835
4.80857
4.85957
4.91138
4.96401
5.01748
5.07181
5.12702
5.18313
5.24017
5.29814
5.35708
5.417
5.47794
5.53991
5.60294
5.66706
5.73229
5.79866
5.8662
5.93494
6.00492
6.07615
6.14839
6.22163
6.29683
6.37341
6.45142
6.53088
6.61184
6.69433
6.7784
6.86408
6.95142
7.04045
7.13121
7.22376
7.31813
7.41436
7.51251
7.61262
7.71473
7.8189
7.92517
8.0336
8.14425
8.25715
8.37238
8.48999
8.61004
8.73259
8.85772
8.98549
9.11597
9.24925
9.3849
9.52284
9.66496
9.81018
9.95863
10.1104
10.2656
10.4243
10.5866
10.7527
10.9228
11.0968
11.275
11.4576
11.6445
11.8361
12.0325
12.2338
12.4403
12.652
12.8693
13.0923
13.3212
13.5561
13.7975
14.0454
14.299
14.5586
14.8277
15.1044
15.3888
15.6814
15.9825
16.2923
16.6112
16.9396
17.2778
17.6262
17.9853
18.3554
18.737
19.1305
19.5366
19.9557
20.3883
20.8351
21.2966
21.7735
22.2664
22.7762
23.3035
23.8492
24.414
24.9989
25.6049
26.2329
26.8841
27.5595
28.2605
28.9883
29.7443
30.5301
31.3471
32.1972
33.0822
34.004
34.9648
35.9667
37.0122
38.1039
39.2445
40.4371
41.6849
42.9914
44.3604
45.7961
47.3033
48.8868
50.5375
52.2784
54.1119
56.0428
58.0772
60.2222
62.4854
64.8752
67.4008
70.0723
72.9008
75.8986
79.0793
82.4582
86.052
89.8799
93.963
98.3249
102.992
107.995
113.367
119.145
125.372
132.095
139.369
147.256
155.825
165.156
175.343
186.492
198.642
211.988
226.833
243.259
261.496
281.818
304.55
330.087
358.907
391.594
428.867
471.613
520.937
578.219
645.202
724.104
817.78
929.965
1065.63
1231.52
1437.04
1695.6
2026.9
2460.64
3042.66
3845.62
4988.82
6678.71
9299.4
13630.6
21414.5
36987.6
72696.4
169679
484081
1.6236e+06
6.02272e+06
2.72312e+07
9.27279e+06
50762.4
199.097
1.9581
0.0747518
0.00953869
0.00284817
0.00144218
0.000991934
0.000809521
0.000725585
0.000684151
0.000662997
0.000651976
0.000646095
0.000642923
0.000641267
0.000640454
0.000639947
0.000639751
0.000639612
0.000639541
0.000639506
0.000639492
0.000639488
0.000639489
0.000639565
0.000639574
0.000639507
0.000639511
0.000639518
0.000639525
0.000639607
0.000639542
0.000639549
0.000639555
0.000639561
0.000639571
0.000639651
0.000639585
0.000639667
0.000639672
0.000639607
0.000639615
0.000639693
0.000639702
0.000639712
0.000639647
0.000639653
0.000639661
0.000639669
0.000639677
0.000639683
0.000639765
0.0006397
0.000639707
0.000639786
0.000639723
0.000639803
0.000639737
0.000639744
0.000639753
0.000639761
0.000639771
0.000639779
0.000639785
0.000639792
0.000639801
0.000639809
0.000639814
0.000639823
0.000639829
0.000639836
0.000639842
0.000639848
0.000639785
0.000639865
0.0006398
0.000639879
0.000639815
0.000639822
0.000639829
0.000639835
0.000639844
0.000639923
0.000639862
0.000639869
0.000639875
0.000639955
0.00063989
0.000639898
0.000639978
0.000639916
0.000639922
0.000639928
0.000639937
0.000640017
0.000640025
0.000640034
0.000639968
0.000639974
0.000639983
0.000640065
0.000640002
0.000640008
0.000640014
0.000640023
0.000640104
0.000640039
0.000640045
0.000640054
0.000640134
0.000640141
0.000640076
0.000640084
0.000640093
0.000640099
0.000640108
0.000640188
0.000640122
0.000640127
0.000640138
0.000640216
0.000640152
0.000640161
0.000640166
0.000640247
0.000640181
0.000640188
0.000640195
0.000640203
0.000640209
0.000640291
0.000640297
0.000640303
0.000640239
0.000640319
0.000640327
0.000640334
0.000640269
0.000640348
0.000640285
0.000640363
0.000640373
0.000640309
0.000640319
0.000640327
0.000640334
0.000640339
0.000640349
0.000640429
0.000640365
0.00064037
0.00064038
0.000640385
0.000640466
0.000640403
0.000640412
0.000640419
0.000640427
0.000640435
0.000640441
0.00064045
0.000640459
0.000640465
0.000640473
0.000640481
0.000640563
0.000640498
0.000640507
0.000640587
0.000640523
0.000640532
0.000640539
0.000640547
0.000640555
0.000640564
0.000640572
0.000640509
0.000640516
0.000640521
0.00064053
0.000640534
0.000640613
0.000640547
0.000640557
0.000640634
0.000640569
0.000640649
0.000640583
0.00064059
0.00064067
0.000640605
0.000640685
0.00064069
0.000640628
0.000640634
0.000640714
)
;

boundaryField
{
    fixedWall
    {
        type            calculated;
        value           uniform 0;
    }
    outlet
    {
        type            calculated;
        value           uniform 0;
    }
    defaultFaces
    {
        type            empty;
    }
}


// ************************************************************************* //
