/*--------------------------------*- C++ -*----------------------------------*\
| =========                 |                                                 |
| \\      /  F ield         | OpenFOAM: The Open Source CFD Toolbox           |
|  \\    /   O peration     | Version:  2406                                  |
|   \\  /    A nd           | Website:  www.openfoam.com                      |
|    \\/     M anipulation  |                                                 |
\*---------------------------------------------------------------------------*/
FoamFile
{
    version     2.0;
    format      ascii;
    arch        "LSB;label=32;scalar=64";
    class       volScalarField;
    location    "5";
    object      T;
}
// * * * * * * * * * * * * * * * * * * * * * * * * * * * * * * * * * * * * * //

dimensions      [0 0 0 1 0 0 0];

internalField   nonuniform List<scalar> 
1000
(
311.614
344.756
374.582
401.771
426.793
449.989
471.617
491.877
510.93
528.904
545.907
562.028
577.343
591.918
605.807
619.061
631.722
643.828
655.412
666.506
677.136
687.328
697.103
706.482
715.484
724.127
732.426
740.397
748.054
755.409
762.476
769.264
775.786
782.052
788.071
793.852
799.405
804.738
809.858
814.774
819.493
824.022
828.367
832.535
836.533
840.366
844.041
847.562
850.936
854.167
857.261
860.223
863.057
865.768
868.361
870.839
873.207
875.47
877.63
879.692
881.66
883.537
885.326
887.032
888.657
890.204
891.676
893.078
894.41
895.677
896.881
898.024
899.109
900.139
901.116
902.042
902.919
903.75
904.537
905.281
905.985
906.65
907.279
907.872
908.433
908.961
909.459
909.928
910.37
910.786
911.178
911.545
911.891
912.216
912.521
912.806
913.075
913.325
913.56
913.78
913.984
914.177
914.357
914.525
914.682
914.828
914.964
915.091
915.209
915.318
915.42
915.515
915.603
915.684
915.76
915.83
915.895
915.955
916.01
916.061
916.108
916.152
916.192
916.229
916.262
916.294
916.322
916.348
916.373
916.395
916.415
916.433
916.45
916.465
916.479
916.492
916.503
916.514
916.523
916.532
916.54
916.547
916.553
916.559
916.564
916.568
916.572
916.576
916.579
916.582
916.584
916.586
916.588
916.59
916.591
916.592
916.593
916.594
916.595
916.595
916.596
916.596
916.596
916.596
916.596
916.596
916.595
916.595
916.595
916.594
916.594
916.593
916.593
916.592
916.592
916.591
916.59
916.589
916.589
916.588
916.587
916.586
916.585
916.584
916.583
916.582
916.581
916.58
916.579
916.578
916.577
916.576
916.575
916.574
916.573
916.572
916.571
916.57
916.568
916.567
916.566
916.565
916.564
916.562
916.561
916.56
916.559
916.557
916.556
916.555
916.553
916.552
916.551
916.549
916.548
916.547
916.545
916.544
916.543
916.541
916.54
916.539
916.537
916.536
916.535
916.533
916.532
916.531
916.529
916.528
916.527
916.525
916.524
916.523
916.521
916.52
916.519
916.517
916.516
916.515
916.514
916.513
916.511
916.51
916.509
916.508
916.507
916.505
916.504
916.503
916.502
916.501
916.5
916.499
916.498
916.497
916.496
916.495
916.494
916.493
916.492
916.491
916.49
916.49
916.489
916.488
916.487
916.486
916.486
916.485
916.484
916.484
916.483
916.483
916.482
916.481
916.481
916.48
916.48
916.479
916.479
916.479
916.478
916.478
916.478
916.477
916.477
916.477
916.476
916.476
916.476
916.476
916.476
916.475
916.475
916.475
916.475
916.475
916.475
916.475
916.475
916.475
916.475
916.475
916.475
916.475
916.476
916.476
916.476
916.476
916.476
916.476
916.477
916.477
916.477
916.477
916.478
916.478
916.478
916.478
916.479
916.479
916.48
916.48
916.48
916.481
916.481
916.482
916.482
916.482
916.483
916.483
916.484
916.484
916.485
916.486
916.486
916.487
916.487
916.488
916.488
916.489
916.49
916.49
916.491
916.492
916.492
916.493
916.494
916.494
916.495
916.496
916.497
916.497
916.498
916.499
916.5
916.5
916.501
916.502
916.503
916.503
916.504
916.505
916.506
916.506
916.507
916.508
916.509
916.509
916.51
916.511
916.512
916.512
916.513
916.514
916.514
916.515
916.515
916.516
916.517
916.517
916.518
916.518
916.519
916.519
916.52
916.52
916.52
916.521
916.521
916.521
916.521
916.522
916.522
916.522
916.522
916.522
916.522
916.522
916.522
916.522
916.522
916.522
916.522
916.521
916.521
916.521
916.521
916.52
916.52
916.52
916.519
916.519
916.518
916.518
916.517
916.517
916.516
916.516
916.515
916.515
916.514
916.514
916.513
916.513
916.512
916.512
916.511
916.511
916.51
916.51
916.509
916.509
916.509
916.508
916.508
916.508
916.507
916.507
916.507
916.507
916.507
916.507
916.506
916.506
916.506
916.506
916.506
916.507
916.507
916.507
916.507
916.507
916.507
916.508
916.508
916.508
916.509
916.509
916.509
916.51
916.51
916.51
916.511
916.511
916.512
916.512
916.512
916.513
916.513
916.514
916.514
916.514
916.515
916.515
916.515
916.516
916.516
916.516
916.516
916.517
916.517
916.517
916.517
916.517
916.517
916.518
916.518
916.518
916.518
916.518
916.518
916.518
916.518
916.518
916.518
916.518
916.518
916.518
916.518
916.518
916.517
916.517
916.517
916.517
916.517
916.517
916.517
916.517
916.517
916.517
916.517
916.517
916.517
916.517
916.517
916.517
916.517
916.517
916.517
916.517
916.517
916.517
916.517
916.517
916.517
916.517
916.517
916.517
916.517
916.518
916.518
916.518
916.518
916.518
916.518
916.518
916.518
916.518
916.518
916.518
916.518
916.518
916.518
916.518
916.518
916.518
916.518
916.517
916.517
916.517
916.517
916.516
916.516
916.516
916.515
916.515
916.514
916.514
916.513
916.512
916.512
916.511
916.511
916.51
916.509
916.509
916.508
916.507
916.506
916.506
916.505
916.504
916.504
916.503
916.503
916.502
916.501
916.501
916.501
916.5
916.5
916.5
916.5
916.5
916.5
916.5
916.5
916.5
916.501
916.501
916.502
916.502
916.503
916.504
916.505
916.506
916.507
916.508
916.509
916.51
916.512
916.513
916.514
916.516
916.517
916.518
916.52
916.521
916.523
916.524
916.525
916.527
916.528
916.529
916.53
916.531
916.532
916.533
916.533
916.534
916.534
916.535
916.535
916.535
916.535
916.535
916.534
916.534
916.533
916.532
916.531
916.53
916.529
916.528
916.527
916.525
916.524
916.522
916.52
916.519
916.517
916.515
916.514
916.512
916.511
916.509
916.508
916.506
916.505
916.504
916.503
916.503
916.502
916.502
916.501
916.501
916.501
916.502
916.502
916.503
916.504
916.505
916.506
916.507
916.508
916.51
916.511
916.512
916.514
916.515
916.517
916.518
916.52
916.521
916.522
916.523
916.524
916.525
916.526
916.526
916.527
916.527
916.526
916.526
916.525
916.525
916.524
916.523
916.521
916.52
916.518
916.516
916.514
916.512
916.51
916.508
916.506
916.503
916.501
916.498
916.496
916.494
916.491
916.489
916.487
916.485
916.483
916.481
916.479
916.478
916.476
916.475
916.473
916.472
916.471
916.47
916.47
916.469
916.468
916.468
916.467
916.467
916.467
916.466
916.466
916.466
916.466
916.465
916.465
916.465
916.465
916.465
916.465
916.465
916.465
916.465
916.466
916.467
916.468
916.469
916.471
916.473
916.475
916.478
916.482
916.486
916.49
916.495
916.501
916.506
916.513
916.519
916.525
916.532
916.539
916.545
916.551
916.556
916.561
916.565
916.569
916.571
916.572
916.572
916.571
916.569
916.566
916.561
916.555
916.547
916.539
916.529
916.519
916.507
916.494
916.481
916.466
916.451
916.435
916.419
916.403
916.388
916.374
916.363
916.355
916.349
916.343
916.335
916.321
916.297
916.256
916.19
916.086
915.914
915.611
915.043
913.91
911.312
903.826
876.404
712.101
549.964
442.746
377.1
339.176
318.033
306.473
300.218
296.853
295.048
294.081
293.564
293.288
293.14
293.061
293.019
292.996
292.984
292.978
292.975
292.973
292.972
292.971
292.971
292.971
292.971
292.971
292.971
292.971
292.971
292.971
292.971
292.972
292.972
292.972
292.972
292.972
292.972
292.972
292.972
292.972
292.972
292.972
292.972
292.972
292.972
292.972
292.973
292.973
292.973
292.973
292.973
292.973
292.973
292.973
292.973
292.973
292.973
292.973
292.973
292.973
292.973
292.974
292.974
292.974
292.974
292.974
292.974
292.974
292.974
292.974
292.974
292.974
292.974
292.974
292.974
292.974
292.974
292.975
292.975
292.975
292.975
292.975
292.975
292.975
292.975
292.975
292.975
292.975
292.975
292.975
292.975
292.975
292.976
292.976
292.976
292.976
292.976
292.976
292.976
292.976
292.976
292.976
292.976
292.976
292.976
292.976
292.976
292.977
292.977
292.977
292.977
292.977
292.977
292.977
292.977
292.977
292.977
292.977
292.977
292.977
292.977
292.977
292.978
292.978
292.978
292.978
292.978
292.978
292.978
292.978
292.978
292.978
292.978
292.978
292.978
292.978
292.978
292.979
292.979
292.979
292.979
292.979
292.979
292.979
292.979
292.979
292.979
292.979
292.979
292.979
292.979
292.979
292.98
292.98
292.98
292.98
292.98
292.98
292.98
292.98
292.98
292.98
292.98
292.98
292.98
292.98
292.98
292.981
292.981
292.981
292.981
292.981
292.981
292.981
292.981
292.981
292.981
292.981
292.981
292.981
292.981
292.982
292.982
292.982
292.982
292.982
292.982
292.982
292.982
292.982
292.982
292.982
292.982
292.982
292.982
292.982
292.982
)
;

boundaryField
{
    fixedWall
    {
        type            fixedValue;
        value           uniform 293;
    }
    outlet
    {
        type            inletOutlet;
        inletValue      uniform 293;
        value           uniform 292.982;
    }
    defaultFaces
    {
        type            empty;
    }
}


// ************************************************************************* //
