/*--------------------------------*- C++ -*----------------------------------*\
| =========                 |                                                 |
| \\      /  F ield         | OpenFOAM: The Open Source CFD Toolbox           |
|  \\    /   O peration     | Version:  2406                                  |
|   \\  /    A nd           | Website:  www.openfoam.com                      |
|    \\/     M anipulation  |                                                 |
\*---------------------------------------------------------------------------*/
FoamFile
{
    version     2.0;
    format      ascii;
    arch        "LSB;label=32;scalar=64";
    class       volVectorField;
    location    "5";
    object      U;
}
// * * * * * * * * * * * * * * * * * * * * * * * * * * * * * * * * * * * * * //

dimensions      [0 1 -1 0 0 0 0];

internalField   nonuniform List<vector> 
1000
(
(-2.75316e-06 0 0)
(-1.33427e-05 0 0)
(-3.36231e-05 0 0)
(-6.02833e-05 0 0)
(-9.1571e-05 0 0)
(-0.000126464 0 0)
(-0.000164243 0 0)
(-0.000204334 0 0)
(-0.000246278 0 0)
(-0.000289704 0 0)
(-0.000334308 0 0)
(-0.00037984 0 0)
(-0.000426087 0 0)
(-0.000472869 0 0)
(-0.000520031 0 0)
(-0.000567439 0 0)
(-0.000614975 0 0)
(-0.000662535 0 0)
(-0.000710028 0 0)
(-0.000757372 0 0)
(-0.000804495 0 0)
(-0.000851331 0 0)
(-0.000897821 0 0)
(-0.000943913 0 0)
(-0.000989559 0 0)
(-0.00103472 0 0)
(-0.00107934 0 0)
(-0.00112341 0 0)
(-0.00116688 0 0)
(-0.00120973 0 0)
(-0.00125193 0 0)
(-0.00129346 0 0)
(-0.00133429 0 0)
(-0.00137442 0 0)
(-0.00141382 0 0)
(-0.00145248 0 0)
(-0.00149039 0 0)
(-0.00152753 0 0)
(-0.00156391 0 0)
(-0.0015995 0 0)
(-0.00163432 0 0)
(-0.00166834 0 0)
(-0.00170158 0 0)
(-0.00173402 0 0)
(-0.00176568 0 0)
(-0.00179654 0 0)
(-0.00182661 0 0)
(-0.0018559 0 0)
(-0.0018844 0 0)
(-0.00191213 0 0)
(-0.00193908 0 0)
(-0.00196527 0 0)
(-0.0019907 0 0)
(-0.00201538 0 0)
(-0.00203931 0 0)
(-0.00206252 0 0)
(-0.00208499 0 0)
(-0.00210676 0 0)
(-0.00212782 0 0)
(-0.00214819 0 0)
(-0.00216787 0 0)
(-0.00218689 0 0)
(-0.00220526 0 0)
(-0.00222297 0 0)
(-0.00224006 0 0)
(-0.00225653 0 0)
(-0.00227239 0 0)
(-0.00228766 0 0)
(-0.00230235 0 0)
(-0.00231648 0 0)
(-0.00233005 0 0)
(-0.00234309 0 0)
(-0.00235561 0 0)
(-0.00236761 0 0)
(-0.00237912 0 0)
(-0.00239015 0 0)
(-0.00240071 0 0)
(-0.00241081 0 0)
(-0.00242048 0 0)
(-0.00242971 0 0)
(-0.00243854 0 0)
(-0.00244696 0 0)
(-0.00245499 0 0)
(-0.00246265 0 0)
(-0.00246995 0 0)
(-0.0024769 0 0)
(-0.00248352 0 0)
(-0.00248981 0 0)
(-0.00249578 0 0)
(-0.00250146 0 0)
(-0.00250685 0 0)
(-0.00251196 0 0)
(-0.0025168 0 0)
(-0.00252139 0 0)
(-0.00252573 0 0)
(-0.00252982 0 0)
(-0.00253367 0 0)
(-0.00253734 0 0)
(-0.00254081 0 0)
(-0.00254404 0 0)
(-0.0025471 0 0)
(-0.00255001 0 0)
(-0.00255274 0 0)
(-0.00255531 0 0)
(-0.00255771 0 0)
(-0.00255997 0 0)
(-0.00256209 0 0)
(-0.00256407 0 0)
(-0.00256592 0 0)
(-0.00256765 0 0)
(-0.00256927 0 0)
(-0.00257079 0 0)
(-0.00257219 0 0)
(-0.00257351 0 0)
(-0.00257473 0 0)
(-0.00257586 0 0)
(-0.00257692 0 0)
(-0.00257789 0 0)
(-0.00257879 0 0)
(-0.00257962 0 0)
(-0.00258039 0 0)
(-0.0025811 0 0)
(-0.00258175 0 0)
(-0.00258234 0 0)
(-0.00258289 0 0)
(-0.00258339 0 0)
(-0.00258384 0 0)
(-0.00258426 0 0)
(-0.00258463 0 0)
(-0.00258497 0 0)
(-0.00258527 0 0)
(-0.00258555 0 0)
(-0.00258579 0 0)
(-0.00258601 0 0)
(-0.0025862 0 0)
(-0.00258636 0 0)
(-0.00258651 0 0)
(-0.00258663 0 0)
(-0.00258673 0 0)
(-0.00258682 0 0)
(-0.00258689 0 0)
(-0.00258695 0 0)
(-0.00258699 0 0)
(-0.00258701 0 0)
(-0.00258703 0 0)
(-0.00258703 0 0)
(-0.00258703 0 0)
(-0.00258701 0 0)
(-0.00258699 0 0)
(-0.00258696 0 0)
(-0.00258692 0 0)
(-0.00258687 0 0)
(-0.00258682 0 0)
(-0.00258677 0 0)
(-0.0025867 0 0)
(-0.00258664 0 0)
(-0.00258657 0 0)
(-0.00258649 0 0)
(-0.00258641 0 0)
(-0.00258633 0 0)
(-0.00258625 0 0)
(-0.00258616 0 0)
(-0.00258607 0 0)
(-0.00258598 0 0)
(-0.00258588 0 0)
(-0.00258579 0 0)
(-0.00258569 0 0)
(-0.00258559 0 0)
(-0.00258549 0 0)
(-0.00258539 0 0)
(-0.00258529 0 0)
(-0.00258518 0 0)
(-0.00258508 0 0)
(-0.00258497 0 0)
(-0.00258487 0 0)
(-0.00258476 0 0)
(-0.00258466 0 0)
(-0.00258455 0 0)
(-0.00258444 0 0)
(-0.00258433 0 0)
(-0.00258423 0 0)
(-0.00258412 0 0)
(-0.00258401 0 0)
(-0.0025839 0 0)
(-0.00258379 0 0)
(-0.00258368 0 0)
(-0.00258357 0 0)
(-0.00258346 0 0)
(-0.00258335 0 0)
(-0.00258324 0 0)
(-0.00258313 0 0)
(-0.00258302 0 0)
(-0.00258291 0 0)
(-0.0025828 0 0)
(-0.00258269 0 0)
(-0.00258258 0 0)
(-0.00258247 0 0)
(-0.00258236 0 0)
(-0.00258225 0 0)
(-0.00258213 0 0)
(-0.00258202 0 0)
(-0.00258191 0 0)
(-0.0025818 0 0)
(-0.00258169 0 0)
(-0.00258158 0 0)
(-0.00258146 0 0)
(-0.00258135 0 0)
(-0.00258124 0 0)
(-0.00258113 0 0)
(-0.00258101 0 0)
(-0.0025809 0 0)
(-0.00258079 0 0)
(-0.00258068 0 0)
(-0.00258056 0 0)
(-0.00258045 0 0)
(-0.00258034 0 0)
(-0.00258022 0 0)
(-0.00258011 0 0)
(-0.00257999 0 0)
(-0.00257988 0 0)
(-0.00257977 0 0)
(-0.00257965 0 0)
(-0.00257954 0 0)
(-0.00257942 0 0)
(-0.00257931 0 0)
(-0.00257919 0 0)
(-0.00257908 0 0)
(-0.00257896 0 0)
(-0.00257885 0 0)
(-0.00257873 0 0)
(-0.00257861 0 0)
(-0.0025785 0 0)
(-0.00257838 0 0)
(-0.00257826 0 0)
(-0.00257815 0 0)
(-0.00257803 0 0)
(-0.00257791 0 0)
(-0.0025778 0 0)
(-0.00257768 0 0)
(-0.00257756 0 0)
(-0.00257744 0 0)
(-0.00257733 0 0)
(-0.00257721 0 0)
(-0.00257709 0 0)
(-0.00257697 0 0)
(-0.00257685 0 0)
(-0.00257674 0 0)
(-0.00257662 0 0)
(-0.0025765 0 0)
(-0.00257638 0 0)
(-0.00257626 0 0)
(-0.00257614 0 0)
(-0.00257602 0 0)
(-0.0025759 0 0)
(-0.00257578 0 0)
(-0.00257566 0 0)
(-0.00257554 0 0)
(-0.00257542 0 0)
(-0.0025753 0 0)
(-0.00257518 0 0)
(-0.00257506 0 0)
(-0.00257494 0 0)
(-0.00257482 0 0)
(-0.0025747 0 0)
(-0.00257458 0 0)
(-0.00257446 0 0)
(-0.00257434 0 0)
(-0.00257422 0 0)
(-0.0025741 0 0)
(-0.00257397 0 0)
(-0.00257385 0 0)
(-0.00257373 0 0)
(-0.00257361 0 0)
(-0.00257349 0 0)
(-0.00257337 0 0)
(-0.00257325 0 0)
(-0.00257313 0 0)
(-0.00257301 0 0)
(-0.00257288 0 0)
(-0.00257276 0 0)
(-0.00257264 0 0)
(-0.00257252 0 0)
(-0.0025724 0 0)
(-0.00257228 0 0)
(-0.00257216 0 0)
(-0.00257204 0 0)
(-0.00257192 0 0)
(-0.00257179 0 0)
(-0.00257167 0 0)
(-0.00257155 0 0)
(-0.00257143 0 0)
(-0.00257131 0 0)
(-0.00257119 0 0)
(-0.00257107 0 0)
(-0.00257095 0 0)
(-0.00257083 0 0)
(-0.0025707 0 0)
(-0.00257058 0 0)
(-0.00257046 0 0)
(-0.00257034 0 0)
(-0.00257022 0 0)
(-0.0025701 0 0)
(-0.00256998 0 0)
(-0.00256986 0 0)
(-0.00256974 0 0)
(-0.00256962 0 0)
(-0.0025695 0 0)
(-0.00256938 0 0)
(-0.00256926 0 0)
(-0.00256914 0 0)
(-0.00256902 0 0)
(-0.0025689 0 0)
(-0.00256878 0 0)
(-0.00256866 0 0)
(-0.00256854 0 0)
(-0.00256842 0 0)
(-0.0025683 0 0)
(-0.00256817 0 0)
(-0.00256805 0 0)
(-0.00256793 0 0)
(-0.00256781 0 0)
(-0.00256769 0 0)
(-0.00256757 0 0)
(-0.00256745 0 0)
(-0.00256733 0 0)
(-0.00256721 0 0)
(-0.00256709 0 0)
(-0.00256697 0 0)
(-0.00256685 0 0)
(-0.00256673 0 0)
(-0.00256661 0 0)
(-0.00256649 0 0)
(-0.00256637 0 0)
(-0.00256625 0 0)
(-0.00256613 0 0)
(-0.00256601 0 0)
(-0.00256589 0 0)
(-0.00256577 0 0)
(-0.00256565 0 0)
(-0.00256553 0 0)
(-0.00256541 0 0)
(-0.00256529 0 0)
(-0.00256517 0 0)
(-0.00256505 0 0)
(-0.00256493 0 0)
(-0.00256481 0 0)
(-0.00256469 0 0)
(-0.00256457 0 0)
(-0.00256445 0 0)
(-0.00256433 0 0)
(-0.00256421 0 0)
(-0.00256409 0 0)
(-0.00256397 0 0)
(-0.00256385 0 0)
(-0.00256373 0 0)
(-0.00256361 0 0)
(-0.00256349 0 0)
(-0.00256338 0 0)
(-0.00256326 0 0)
(-0.00256314 0 0)
(-0.00256302 0 0)
(-0.0025629 0 0)
(-0.00256278 0 0)
(-0.00256267 0 0)
(-0.00256255 0 0)
(-0.00256243 0 0)
(-0.00256231 0 0)
(-0.0025622 0 0)
(-0.00256208 0 0)
(-0.00256196 0 0)
(-0.00256185 0 0)
(-0.00256173 0 0)
(-0.00256162 0 0)
(-0.0025615 0 0)
(-0.00256139 0 0)
(-0.00256127 0 0)
(-0.00256116 0 0)
(-0.00256104 0 0)
(-0.00256093 0 0)
(-0.00256081 0 0)
(-0.0025607 0 0)
(-0.00256059 0 0)
(-0.00256047 0 0)
(-0.00256036 0 0)
(-0.00256025 0 0)
(-0.00256014 0 0)
(-0.00256002 0 0)
(-0.00255991 0 0)
(-0.0025598 0 0)
(-0.00255969 0 0)
(-0.00255958 0 0)
(-0.00255947 0 0)
(-0.00255935 0 0)
(-0.00255924 0 0)
(-0.00255913 0 0)
(-0.00255902 0 0)
(-0.00255891 0 0)
(-0.0025588 0 0)
(-0.00255869 0 0)
(-0.00255858 0 0)
(-0.00255846 0 0)
(-0.00255835 0 0)
(-0.00255824 0 0)
(-0.00255813 0 0)
(-0.00255802 0 0)
(-0.00255791 0 0)
(-0.00255779 0 0)
(-0.00255768 0 0)
(-0.00255757 0 0)
(-0.00255746 0 0)
(-0.00255734 0 0)
(-0.00255723 0 0)
(-0.00255711 0 0)
(-0.002557 0 0)
(-0.00255689 0 0)
(-0.00255677 0 0)
(-0.00255665 0 0)
(-0.00255654 0 0)
(-0.00255642 0 0)
(-0.0025563 0 0)
(-0.00255618 0 0)
(-0.00255606 0 0)
(-0.00255594 0 0)
(-0.00255582 0 0)
(-0.0025557 0 0)
(-0.00255558 0 0)
(-0.00255546 0 0)
(-0.00255534 0 0)
(-0.00255522 0 0)
(-0.00255509 0 0)
(-0.00255497 0 0)
(-0.00255484 0 0)
(-0.00255472 0 0)
(-0.00255459 0 0)
(-0.00255447 0 0)
(-0.00255434 0 0)
(-0.00255421 0 0)
(-0.00255408 0 0)
(-0.00255396 0 0)
(-0.00255383 0 0)
(-0.0025537 0 0)
(-0.00255357 0 0)
(-0.00255344 0 0)
(-0.00255331 0 0)
(-0.00255319 0 0)
(-0.00255306 0 0)
(-0.00255293 0 0)
(-0.0025528 0 0)
(-0.00255267 0 0)
(-0.00255254 0 0)
(-0.00255241 0 0)
(-0.00255228 0 0)
(-0.00255216 0 0)
(-0.00255203 0 0)
(-0.0025519 0 0)
(-0.00255177 0 0)
(-0.00255165 0 0)
(-0.00255152 0 0)
(-0.0025514 0 0)
(-0.00255127 0 0)
(-0.00255114 0 0)
(-0.00255102 0 0)
(-0.0025509 0 0)
(-0.00255077 0 0)
(-0.00255065 0 0)
(-0.00255053 0 0)
(-0.0025504 0 0)
(-0.00255028 0 0)
(-0.00255016 0 0)
(-0.00255004 0 0)
(-0.00254992 0 0)
(-0.0025498 0 0)
(-0.00254968 0 0)
(-0.00254956 0 0)
(-0.00254944 0 0)
(-0.00254932 0 0)
(-0.0025492 0 0)
(-0.00254908 0 0)
(-0.00254896 0 0)
(-0.00254885 0 0)
(-0.00254873 0 0)
(-0.00254861 0 0)
(-0.00254849 0 0)
(-0.00254837 0 0)
(-0.00254825 0 0)
(-0.00254814 0 0)
(-0.00254802 0 0)
(-0.0025479 0 0)
(-0.00254778 0 0)
(-0.00254766 0 0)
(-0.00254754 0 0)
(-0.00254742 0 0)
(-0.0025473 0 0)
(-0.00254718 0 0)
(-0.00254706 0 0)
(-0.00254694 0 0)
(-0.00254682 0 0)
(-0.0025467 0 0)
(-0.00254658 0 0)
(-0.00254645 0 0)
(-0.00254633 0 0)
(-0.00254621 0 0)
(-0.00254609 0 0)
(-0.00254596 0 0)
(-0.00254584 0 0)
(-0.00254571 0 0)
(-0.00254559 0 0)
(-0.00254547 0 0)
(-0.00254534 0 0)
(-0.00254521 0 0)
(-0.00254509 0 0)
(-0.00254496 0 0)
(-0.00254484 0 0)
(-0.00254471 0 0)
(-0.00254458 0 0)
(-0.00254446 0 0)
(-0.00254433 0 0)
(-0.0025442 0 0)
(-0.00254408 0 0)
(-0.00254395 0 0)
(-0.00254382 0 0)
(-0.00254369 0 0)
(-0.00254357 0 0)
(-0.00254344 0 0)
(-0.00254331 0 0)
(-0.00254319 0 0)
(-0.00254306 0 0)
(-0.00254293 0 0)
(-0.00254281 0 0)
(-0.00254268 0 0)
(-0.00254255 0 0)
(-0.00254243 0 0)
(-0.0025423 0 0)
(-0.00254218 0 0)
(-0.00254205 0 0)
(-0.00254193 0 0)
(-0.0025418 0 0)
(-0.00254168 0 0)
(-0.00254156 0 0)
(-0.00254143 0 0)
(-0.00254131 0 0)
(-0.00254119 0 0)
(-0.00254107 0 0)
(-0.00254095 0 0)
(-0.00254083 0 0)
(-0.0025407 0 0)
(-0.00254058 0 0)
(-0.00254046 0 0)
(-0.00254034 0 0)
(-0.00254023 0 0)
(-0.00254011 0 0)
(-0.00253999 0 0)
(-0.00253987 0 0)
(-0.00253975 0 0)
(-0.00253963 0 0)
(-0.00253951 0 0)
(-0.00253939 0 0)
(-0.00253927 0 0)
(-0.00253915 0 0)
(-0.00253903 0 0)
(-0.00253891 0 0)
(-0.00253879 0 0)
(-0.00253867 0 0)
(-0.00253854 0 0)
(-0.00253842 0 0)
(-0.0025383 0 0)
(-0.00253817 0 0)
(-0.00253804 0 0)
(-0.00253792 0 0)
(-0.00253779 0 0)
(-0.00253766 0 0)
(-0.00253753 0 0)
(-0.0025374 0 0)
(-0.00253726 0 0)
(-0.00253713 0 0)
(-0.00253699 0 0)
(-0.00253686 0 0)
(-0.00253672 0 0)
(-0.00253658 0 0)
(-0.00253643 0 0)
(-0.00253629 0 0)
(-0.00253615 0 0)
(-0.002536 0 0)
(-0.00253586 0 0)
(-0.00253571 0 0)
(-0.00253556 0 0)
(-0.00253541 0 0)
(-0.00253526 0 0)
(-0.00253511 0 0)
(-0.00253496 0 0)
(-0.00253481 0 0)
(-0.00253466 0 0)
(-0.00253451 0 0)
(-0.00253436 0 0)
(-0.00253421 0 0)
(-0.00253406 0 0)
(-0.00253391 0 0)
(-0.00253376 0 0)
(-0.00253361 0 0)
(-0.00253346 0 0)
(-0.00253332 0 0)
(-0.00253317 0 0)
(-0.00253303 0 0)
(-0.00253289 0 0)
(-0.00253275 0 0)
(-0.00253261 0 0)
(-0.00253247 0 0)
(-0.00253234 0 0)
(-0.00253221 0 0)
(-0.00253208 0 0)
(-0.00253195 0 0)
(-0.00253182 0 0)
(-0.0025317 0 0)
(-0.00253158 0 0)
(-0.00253146 0 0)
(-0.00253134 0 0)
(-0.00253123 0 0)
(-0.00253111 0 0)
(-0.002531 0 0)
(-0.00253089 0 0)
(-0.00253079 0 0)
(-0.00253068 0 0)
(-0.00253057 0 0)
(-0.00253047 0 0)
(-0.00253037 0 0)
(-0.00253026 0 0)
(-0.00253016 0 0)
(-0.00253006 0 0)
(-0.00252996 0 0)
(-0.00252986 0 0)
(-0.00252975 0 0)
(-0.00252965 0 0)
(-0.00252954 0 0)
(-0.00252943 0 0)
(-0.00252932 0 0)
(-0.00252921 0 0)
(-0.00252909 0 0)
(-0.00252898 0 0)
(-0.00252885 0 0)
(-0.00252873 0 0)
(-0.0025286 0 0)
(-0.00252847 0 0)
(-0.00252833 0 0)
(-0.00252819 0 0)
(-0.00252805 0 0)
(-0.0025279 0 0)
(-0.00252775 0 0)
(-0.00252759 0 0)
(-0.00252743 0 0)
(-0.00252726 0 0)
(-0.0025271 0 0)
(-0.00252693 0 0)
(-0.00252675 0 0)
(-0.00252658 0 0)
(-0.0025264 0 0)
(-0.00252622 0 0)
(-0.00252603 0 0)
(-0.00252585 0 0)
(-0.00252567 0 0)
(-0.00252549 0 0)
(-0.00252531 0 0)
(-0.00252513 0 0)
(-0.00252495 0 0)
(-0.00252477 0 0)
(-0.0025246 0 0)
(-0.00252443 0 0)
(-0.00252426 0 0)
(-0.0025241 0 0)
(-0.00252394 0 0)
(-0.00252379 0 0)
(-0.00252364 0 0)
(-0.0025235 0 0)
(-0.00252336 0 0)
(-0.00252322 0 0)
(-0.00252309 0 0)
(-0.00252297 0 0)
(-0.00252285 0 0)
(-0.00252273 0 0)
(-0.00252262 0 0)
(-0.00252251 0 0)
(-0.0025224 0 0)
(-0.00252229 0 0)
(-0.00252219 0 0)
(-0.00252209 0 0)
(-0.00252199 0 0)
(-0.00252188 0 0)
(-0.00252178 0 0)
(-0.00252168 0 0)
(-0.00252157 0 0)
(-0.00252146 0 0)
(-0.00252135 0 0)
(-0.00252123 0 0)
(-0.00252112 0 0)
(-0.00252099 0 0)
(-0.00252087 0 0)
(-0.00252074 0 0)
(-0.0025206 0 0)
(-0.00252046 0 0)
(-0.00252032 0 0)
(-0.00252017 0 0)
(-0.00252001 0 0)
(-0.00251985 0 0)
(-0.00251969 0 0)
(-0.00251952 0 0)
(-0.00251935 0 0)
(-0.00251917 0 0)
(-0.00251899 0 0)
(-0.0025188 0 0)
(-0.00251861 0 0)
(-0.00251842 0 0)
(-0.00251823 0 0)
(-0.00251803 0 0)
(-0.00251783 0 0)
(-0.00251763 0 0)
(-0.00251743 0 0)
(-0.00251723 0 0)
(-0.00251703 0 0)
(-0.00251683 0 0)
(-0.00251663 0 0)
(-0.00251643 0 0)
(-0.00251623 0 0)
(-0.00251603 0 0)
(-0.00251584 0 0)
(-0.00251564 0 0)
(-0.00251545 0 0)
(-0.00251525 0 0)
(-0.00251506 0 0)
(-0.00251487 0 0)
(-0.00251467 0 0)
(-0.00251447 0 0)
(-0.00251427 0 0)
(-0.00251406 0 0)
(-0.00251385 0 0)
(-0.00251363 0 0)
(-0.00251341 0 0)
(-0.00251318 0 0)
(-0.00251293 0 0)
(-0.00251269 0 0)
(-0.00251238 0 0)
(-0.00251223 0 0)
(-0.00251177 0 0)
(-0.00251153 0 0)
(-0.00251128 0 0)
(-0.00251083 0 0)
(-0.00251061 0 0)
(-0.00251016 0 0)
(-0.00250984 0 0)
(-0.00250946 0 0)
(-0.00250909 0 0)
(-0.0025087 0 0)
(-0.00250836 0 0)
(-0.00250792 0 0)
(-0.00250769 0 0)
(-0.00250722 0 0)
(-0.00250688 0 0)
(-0.00250673 0 0)
(-0.00250631 0 0)
(-0.0025061 0 0)
(-0.00250584 0 0)
(-0.00250562 0 0)
(-0.00250541 0 0)
(-0.00250522 0 0)
(-0.00250504 0 0)
(-0.00250487 0 0)
(-0.00250471 0 0)
(-0.00250449 0 0)
(-0.00250443 0 0)
(-0.00250406 0 0)
(-0.00250399 0 0)
(-0.00250369 0 0)
(-0.00250332 0 0)
(-0.00250316 0 0)
(-0.0025026 0 0)
(-0.00250223 0 0)
(-0.00250174 0 0)
(-0.00250112 0 0)
(-0.0025005 0 0)
(-0.00249976 0 0)
(-0.00249887 0 0)
(-0.00249794 0 0)
(-0.00249671 0 0)
(-0.00249528 0 0)
(-0.00249351 0 0)
(-0.00249132 0 0)
(-0.00248872 0 0)
(-0.00248563 0 0)
(-0.00248211 0 0)
(-0.00247824 0 0)
(-0.00247409 0 0)
(-0.00246975 0 0)
(-0.002465 0 0)
(-0.00245949 0 0)
(-0.00245264 0 0)
(-0.00244179 0 0)
(-0.00242605 0 0)
(-0.00240449 0 0)
(-0.00234631 0 0)
(-0.0023451 0 0)
(-0.00229684 0 0)
(-0.00214178 0 0)
(-0.00130692 0 0)
(0.00992485 0 0)
(0.0380604 0 0)
(0.0677809 0 0)
(0.0861319 0 0)
(0.0954371 0 0)
(0.0999517 0 0)
(0.102047 0 0)
(0.103037 0 0)
(0.103514 0 0)
(0.103765 0 0)
(0.103899 0 0)
(0.103946 0 0)
(0.104012 0 0)
(0.104016 0 0)
(0.104039 0 0)
(0.104006 0 0)
(0.104064 0 0)
(0.104052 0 0)
(0.103988 0 0)
(0.104084 0 0)
(0.104045 0 0)
(0.104008 0 0)
(0.104064 0 0)
(0.104045 0 0)
(0.104033 0 0)
(0.104043 0 0)
(0.10404 0 0)
(0.104049 0 0)
(0.104026 0 0)
(0.104068 0 0)
(0.104048 0 0)
(0.103996 0 0)
(0.10408 0 0)
(0.104057 0 0)
(0.104003 0 0)
(0.104077 0 0)
(0.104031 0 0)
(0.104026 0 0)
(0.104076 0 0)
(0.104014 0 0)
(0.104065 0 0)
(0.104043 0 0)
(0.104041 0 0)
(0.10403 0 0)
(0.104054 0 0)
(0.104066 0 0)
(0.104007 0 0)
(0.104075 0 0)
(0.104032 0 0)
(0.104045 0 0)
(0.104057 0 0)
(0.104025 0 0)
(0.104058 0 0)
(0.104057 0 0)
(0.104022 0 0)
(0.104054 0 0)
(0.104054 0 0)
(0.104056 0 0)
(0.10401 0 0)
(0.104066 0 0)
(0.104063 0 0)
(0.104009 0 0)
(0.104067 0 0)
(0.104066 0 0)
(0.104027 0 0)
(0.10404 0 0)
(0.104059 0 0)
(0.104039 0 0)
(0.104056 0 0)
(0.104043 0 0)
(0.104045 0 0)
(0.104041 0 0)
(0.104057 0 0)
(0.104039 0 0)
(0.104062 0 0)
(0.104047 0 0)
(0.104037 0 0)
(0.104053 0 0)
(0.104035 0 0)
(0.104066 0 0)
(0.104035 0 0)
(0.104069 0 0)
(0.104045 0 0)
(0.104025 0 0)
(0.104069 0 0)
(0.10404 0 0)
(0.10405 0 0)
(0.104048 0 0)
(0.104054 0 0)
(0.104066 0 0)
(0.104015 0 0)
(0.104056 0 0)
(0.104069 0 0)
(0.104054 0 0)
(0.104016 0 0)
(0.104062 0 0)
(0.104071 0 0)
(0.104017 0 0)
(0.104067 0 0)
(0.104067 0 0)
(0.104032 0 0)
(0.104035 0 0)
(0.104085 0 0)
(0.104028 0 0)
(0.104045 0 0)
(0.104082 0 0)
(0.104012 0 0)
(0.104068 0 0)
(0.104063 0 0)
(0.104013 0 0)
(0.10408 0 0)
(0.104066 0 0)
(0.104018 0 0)
(0.104066 0 0)
(0.104065 0 0)
(0.104012 0 0)
(0.104086 0 0)
(0.104061 0 0)
(0.104007 0 0)
(0.104088 0 0)
(0.104059 0 0)
(0.104013 0 0)
(0.104077 0 0)
(0.104068 0 0)
(0.104024 0 0)
(0.104051 0 0)
(0.104081 0 0)
(0.104032 0 0)
(0.104034 0 0)
(0.104097 0 0)
(0.104038 0 0)
(0.104021 0 0)
(0.104076 0 0)
(0.104055 0 0)
(0.104058 0 0)
(0.104027 0 0)
(0.104082 0 0)
(0.104058 0 0)
(0.104017 0 0)
(0.104072 0 0)
(0.104073 0 0)
(0.104032 0 0)
(0.104051 0 0)
(0.104055 0 0)
(0.104064 0 0)
(0.104056 0 0)
(0.104023 0 0)
(0.104074 0 0)
(0.104056 0 0)
(0.104065 0 0)
(0.104028 0 0)
(0.104042 0 0)
(0.104101 0 0)
(0.104022 0 0)
(0.104049 0 0)
(0.104068 0 0)
(0.104049 0 0)
(0.104036 0 0)
(0.104077 0 0)
(0.104068 0 0)
(0.104017 0 0)
(0.104073 0 0)
(0.104052 0 0)
(0.104052 0 0)
(0.104067 0 0)
(0.104033 0 0)
(0.104058 0 0)
(0.104065 0 0)
(0.104046 0 0)
(0.104064 0 0)
(0.104028 0 0)
(0.104065 0 0)
(0.104069 0 0)
(0.104051 0 0)
(0.10404 0 0)
(0.104037 0 0)
(0.104094 0 0)
(0.104033 0 0)
(0.104054 0 0)
(0.10406 0 0)
(0.104046 0 0)
(0.104049 0 0)
(0.104061 0 0)
(0.104068 0 0)
(0.104034 0 0)
(0.104055 0 0)
(0.104063 0 0)
(0.104067 0 0)
(0.104026 0 0)
(0.104056 0 0)
(0.104075 0 0)
(0.104027 0 0)
(0.10408 0 0)
(0.104041 0 0)
(0.104057 0 0)
(0.104043 0 0)
(0.104075 0 0)
(0.104052 0 0)
(0.104051 0 0)
)
;

boundaryField
{
    fixedWall
    {
        type            fixedValue;
        value           uniform (0 0 0);
    }
    outlet
    {
        type            pressureInletOutletVelocity;
        value           uniform (0.104051 0 0);
    }
    defaultFaces
    {
        type            empty;
    }
}


// ************************************************************************* //
