/*--------------------------------*- C++ -*----------------------------------*\
| =========                 |                                                 |
| \\      /  F ield         | OpenFOAM: The Open Source CFD Toolbox           |
|  \\    /   O peration     | Version:  2406                                  |
|   \\  /    A nd           | Website:  www.openfoam.com                      |
|    \\/     M anipulation  |                                                 |
\*---------------------------------------------------------------------------*/
FoamFile
{
    version     2.0;
    format      ascii;
    arch        "LSB;label=32;scalar=64";
    class       volScalarField;
    location    "13";
    object      O2;
}
// * * * * * * * * * * * * * * * * * * * * * * * * * * * * * * * * * * * * * //

dimensions      [0 0 0 0 0 0 0];

internalField   nonuniform List<scalar> 
1000
(
1.03884e-06
1.03736e-06
1.03464e-06
1.03088e-06
1.0262e-06
1.02073e-06
1.01456e-06
1.00775e-06
1.00038e-06
9.92502e-07
9.84163e-07
9.75405e-07
9.66269e-07
9.56786e-07
9.46989e-07
9.36905e-07
9.2656e-07
9.15977e-07
9.0518e-07
8.94188e-07
8.83021e-07
8.71696e-07
8.6023e-07
8.48639e-07
8.36938e-07
8.25143e-07
8.13266e-07
8.01321e-07
7.8932e-07
7.77276e-07
7.65201e-07
7.53106e-07
7.41002e-07
7.289e-07
7.1681e-07
7.04743e-07
6.92709e-07
6.80718e-07
6.68779e-07
6.569e-07
6.45092e-07
6.33363e-07
6.2172e-07
6.10174e-07
5.9873e-07
5.87397e-07
5.76182e-07
5.65092e-07
5.54133e-07
5.43312e-07
5.32635e-07
5.22106e-07
5.11732e-07
5.01516e-07
4.91464e-07
4.81579e-07
4.71864e-07
4.62324e-07
4.52961e-07
4.43777e-07
4.34775e-07
4.25956e-07
4.17322e-07
4.08873e-07
4.00611e-07
3.92536e-07
3.84648e-07
3.76947e-07
3.69432e-07
3.62103e-07
3.54958e-07
3.47996e-07
3.41217e-07
3.34618e-07
3.28197e-07
3.21952e-07
3.15882e-07
3.09983e-07
3.04254e-07
2.98692e-07
2.93293e-07
2.88056e-07
2.82977e-07
2.78054e-07
2.73283e-07
2.68661e-07
2.64186e-07
2.59854e-07
2.55661e-07
2.51605e-07
2.47683e-07
2.4389e-07
2.40225e-07
2.36684e-07
2.33264e-07
2.29961e-07
2.26772e-07
2.23695e-07
2.20726e-07
2.17863e-07
2.15102e-07
2.1244e-07
2.09875e-07
2.07403e-07
2.05022e-07
2.0273e-07
2.00523e-07
1.98398e-07
1.96354e-07
1.94388e-07
1.92496e-07
1.90678e-07
1.8893e-07
1.8725e-07
1.85637e-07
1.84087e-07
1.82598e-07
1.81169e-07
1.79798e-07
1.78483e-07
1.77221e-07
1.7601e-07
1.7485e-07
1.73739e-07
1.72673e-07
1.71653e-07
1.70676e-07
1.69741e-07
1.68846e-07
1.6799e-07
1.67171e-07
1.66389e-07
1.65641e-07
1.64927e-07
1.64245e-07
1.63593e-07
1.62972e-07
1.6238e-07
1.61815e-07
1.61277e-07
1.60764e-07
1.60276e-07
1.59811e-07
1.5937e-07
1.5895e-07
1.58551e-07
1.58173e-07
1.57814e-07
1.57474e-07
1.57151e-07
1.56846e-07
1.56557e-07
1.56285e-07
1.56027e-07
1.55784e-07
1.55555e-07
1.5534e-07
1.55138e-07
1.54948e-07
1.5477e-07
1.54603e-07
1.54448e-07
1.54302e-07
1.54167e-07
1.54042e-07
1.53926e-07
1.53819e-07
1.5372e-07
1.5363e-07
1.53547e-07
1.53472e-07
1.53404e-07
1.53342e-07
1.53288e-07
1.5324e-07
1.53197e-07
1.53161e-07
1.5313e-07
1.53104e-07
1.53084e-07
1.53068e-07
1.53057e-07
1.5305e-07
1.53047e-07
1.53049e-07
1.53054e-07
1.53063e-07
1.53076e-07
1.53092e-07
1.53111e-07
1.53134e-07
1.53159e-07
1.53187e-07
1.53218e-07
1.53252e-07
1.53288e-07
1.53326e-07
1.53367e-07
1.53409e-07
1.53454e-07
1.53501e-07
1.5355e-07
1.536e-07
1.53652e-07
1.53706e-07
1.53761e-07
1.53818e-07
1.53876e-07
1.53936e-07
1.53997e-07
1.54059e-07
1.54122e-07
1.54186e-07
1.54252e-07
1.54318e-07
1.54386e-07
1.54454e-07
1.54524e-07
1.54594e-07
1.54665e-07
1.54736e-07
1.54809e-07
1.54882e-07
1.54956e-07
1.5503e-07
1.55106e-07
1.55181e-07
1.55258e-07
1.55334e-07
1.55412e-07
1.55489e-07
1.55568e-07
1.55646e-07
1.55726e-07
1.55805e-07
1.55885e-07
1.55965e-07
1.56046e-07
1.56127e-07
1.56208e-07
1.5629e-07
1.56372e-07
1.56454e-07
1.56537e-07
1.56619e-07
1.56702e-07
1.56785e-07
1.56869e-07
1.56952e-07
1.57036e-07
1.5712e-07
1.57205e-07
1.57289e-07
1.57374e-07
1.57459e-07
1.57544e-07
1.57629e-07
1.57714e-07
1.578e-07
1.57885e-07
1.57971e-07
1.58057e-07
1.58143e-07
1.58229e-07
1.58316e-07
1.58402e-07
1.58489e-07
1.58575e-07
1.58662e-07
1.58749e-07
1.58836e-07
1.58923e-07
1.5901e-07
1.59098e-07
1.59185e-07
1.59273e-07
1.5936e-07
1.59448e-07
1.59536e-07
1.59624e-07
1.59712e-07
1.598e-07
1.59888e-07
1.59976e-07
1.60064e-07
1.60153e-07
1.60241e-07
1.6033e-07
1.60419e-07
1.60507e-07
1.60596e-07
1.60685e-07
1.60774e-07
1.60863e-07
1.60952e-07
1.61042e-07
1.61131e-07
1.6122e-07
1.6131e-07
1.614e-07
1.61489e-07
1.61579e-07
1.61669e-07
1.61758e-07
1.61848e-07
1.61939e-07
1.62029e-07
1.62119e-07
1.62209e-07
1.623e-07
1.6239e-07
1.62481e-07
1.62571e-07
1.62662e-07
1.62753e-07
1.62844e-07
1.62935e-07
1.63026e-07
1.63117e-07
1.63208e-07
1.633e-07
1.63391e-07
1.63483e-07
1.63574e-07
1.63666e-07
1.63758e-07
1.6385e-07
1.63942e-07
1.64034e-07
1.64126e-07
1.64218e-07
1.64311e-07
1.64403e-07
1.64495e-07
1.64588e-07
1.64681e-07
1.64774e-07
1.64867e-07
1.6496e-07
1.65053e-07
1.65146e-07
1.65239e-07
1.65332e-07
1.65426e-07
1.6552e-07
1.65613e-07
1.65707e-07
1.65801e-07
1.65895e-07
1.65989e-07
1.66083e-07
1.66178e-07
1.66272e-07
1.66367e-07
1.66461e-07
1.66556e-07
1.66651e-07
1.66746e-07
1.66841e-07
1.66936e-07
1.67031e-07
1.67127e-07
1.67222e-07
1.67318e-07
1.67414e-07
1.67509e-07
1.67605e-07
1.67701e-07
1.67798e-07
1.67894e-07
1.6799e-07
1.68087e-07
1.68183e-07
1.6828e-07
1.68377e-07
1.68474e-07
1.68571e-07
1.68668e-07
1.68766e-07
1.68863e-07
1.68961e-07
1.69058e-07
1.69156e-07
1.69254e-07
1.69352e-07
1.6945e-07
1.69548e-07
1.69647e-07
1.69745e-07
1.69844e-07
1.69942e-07
1.70041e-07
1.7014e-07
1.70239e-07
1.70339e-07
1.70438e-07
1.70537e-07
1.70637e-07
1.70737e-07
1.70836e-07
1.70936e-07
1.71036e-07
1.71137e-07
1.71237e-07
1.71337e-07
1.71438e-07
1.71538e-07
1.71639e-07
1.7174e-07
1.71841e-07
1.71942e-07
1.72044e-07
1.72145e-07
1.72246e-07
1.72348e-07
1.7245e-07
1.72552e-07
1.72654e-07
1.72756e-07
1.72858e-07
1.7296e-07
1.73063e-07
1.73166e-07
1.73268e-07
1.73371e-07
1.73474e-07
1.73577e-07
1.7368e-07
1.73784e-07
1.73887e-07
1.73991e-07
1.74095e-07
1.74199e-07
1.74302e-07
1.74407e-07
1.74511e-07
1.74615e-07
1.7472e-07
1.74824e-07
1.74929e-07
1.75034e-07
1.75139e-07
1.75244e-07
1.75349e-07
1.75455e-07
1.7556e-07
1.75666e-07
1.75771e-07
1.75877e-07
1.75983e-07
1.7609e-07
1.76196e-07
1.76302e-07
1.76409e-07
1.76515e-07
1.76622e-07
1.76729e-07
1.76836e-07
1.76943e-07
1.77051e-07
1.77158e-07
1.77266e-07
1.77373e-07
1.77481e-07
1.77589e-07
1.77697e-07
1.77805e-07
1.77914e-07
1.78022e-07
1.78131e-07
1.7824e-07
1.78348e-07
1.78457e-07
1.78567e-07
1.78676e-07
1.78785e-07
1.78895e-07
1.79005e-07
1.79114e-07
1.79224e-07
1.79334e-07
1.79445e-07
1.79555e-07
1.79666e-07
1.79776e-07
1.79887e-07
1.79998e-07
1.80109e-07
1.8022e-07
1.80332e-07
1.80443e-07
1.80555e-07
1.80666e-07
1.80778e-07
1.8089e-07
1.81003e-07
1.81115e-07
1.81227e-07
1.8134e-07
1.81452e-07
1.81565e-07
1.81678e-07
1.81792e-07
1.81905e-07
1.82018e-07
1.82132e-07
1.82246e-07
1.82359e-07
1.82473e-07
1.82588e-07
1.82702e-07
1.82816e-07
1.82931e-07
1.83046e-07
1.8316e-07
1.83275e-07
1.83391e-07
1.83506e-07
1.83621e-07
1.83737e-07
1.83853e-07
1.83969e-07
1.84085e-07
1.84201e-07
1.84317e-07
1.84434e-07
1.8455e-07
1.84667e-07
1.84784e-07
1.84901e-07
1.85018e-07
1.85135e-07
1.85253e-07
1.85371e-07
1.85488e-07
1.85606e-07
1.85724e-07
1.85843e-07
1.85961e-07
1.86079e-07
1.86198e-07
1.86317e-07
1.86436e-07
1.86555e-07
1.86674e-07
1.86794e-07
1.86913e-07
1.87033e-07
1.87153e-07
1.87273e-07
1.87393e-07
1.87514e-07
1.87634e-07
1.87755e-07
1.87876e-07
1.87997e-07
1.88118e-07
1.88239e-07
1.8836e-07
1.88482e-07
1.88604e-07
1.88726e-07
1.88848e-07
1.8897e-07
1.89092e-07
1.89215e-07
1.89337e-07
1.8946e-07
1.89583e-07
1.89706e-07
1.8983e-07
1.89953e-07
1.90077e-07
1.90201e-07
1.90324e-07
1.90449e-07
1.90573e-07
1.90697e-07
1.90822e-07
1.90947e-07
1.91072e-07
1.91197e-07
1.91322e-07
1.91447e-07
1.91573e-07
1.91699e-07
1.91825e-07
1.91951e-07
1.92077e-07
1.92203e-07
1.9233e-07
1.92457e-07
1.92584e-07
1.92711e-07
1.92838e-07
1.92965e-07
1.93093e-07
1.93221e-07
1.93349e-07
1.93477e-07
1.93605e-07
1.93733e-07
1.93862e-07
1.93991e-07
1.9412e-07
1.94249e-07
1.94378e-07
1.94508e-07
1.94637e-07
1.94767e-07
1.94897e-07
1.95028e-07
1.95158e-07
1.95288e-07
1.95419e-07
1.9555e-07
1.95681e-07
1.95812e-07
1.95944e-07
1.96076e-07
1.96207e-07
1.96339e-07
1.96471e-07
1.96604e-07
1.96736e-07
1.96869e-07
1.97002e-07
1.97135e-07
1.97268e-07
1.97402e-07
1.97535e-07
1.97668e-07
1.97802e-07
1.97936e-07
1.98071e-07
1.98205e-07
1.9834e-07
1.98475e-07
1.9861e-07
1.98746e-07
1.98881e-07
1.99017e-07
1.99153e-07
1.99289e-07
1.99425e-07
1.99562e-07
1.99698e-07
1.99835e-07
1.99972e-07
2.00109e-07
2.00247e-07
2.00384e-07
2.00522e-07
2.00659e-07
2.00797e-07
2.00936e-07
2.01074e-07
2.01213e-07
2.01351e-07
2.0149e-07
2.0163e-07
2.01769e-07
2.01909e-07
2.02048e-07
2.02188e-07
2.02328e-07
2.02469e-07
2.02609e-07
2.0275e-07
2.02891e-07
2.03032e-07
2.03173e-07
2.03315e-07
2.03457e-07
2.03598e-07
2.0374e-07
2.03883e-07
2.04025e-07
2.04168e-07
2.04311e-07
2.04454e-07
2.04597e-07
2.0474e-07
2.04884e-07
2.05028e-07
2.05172e-07
2.05316e-07
2.05461e-07
2.05605e-07
2.0575e-07
2.05895e-07
2.0604e-07
2.06186e-07
2.06331e-07
2.06477e-07
2.06623e-07
2.0677e-07
2.06916e-07
2.07062e-07
2.07209e-07
2.07356e-07
2.07503e-07
2.0765e-07
2.07798e-07
2.07946e-07
2.08094e-07
2.08242e-07
2.08391e-07
2.08539e-07
2.08688e-07
2.08837e-07
2.08987e-07
2.09136e-07
2.09286e-07
2.09436e-07
2.09586e-07
2.09736e-07
2.09887e-07
2.10037e-07
2.10188e-07
2.1034e-07
2.10491e-07
2.10643e-07
2.10795e-07
2.10947e-07
2.11099e-07
2.11252e-07
2.11405e-07
2.11558e-07
2.11711e-07
2.11865e-07
2.12019e-07
2.12173e-07
2.12327e-07
2.12481e-07
2.12636e-07
2.12791e-07
2.12946e-07
2.13102e-07
2.13258e-07
2.13414e-07
2.1357e-07
2.13727e-07
2.13883e-07
2.1404e-07
2.14198e-07
2.14355e-07
2.14513e-07
2.14671e-07
2.1483e-07
2.14989e-07
2.15148e-07
2.15307e-07
2.15466e-07
2.15626e-07
2.15787e-07
2.15947e-07
2.16108e-07
2.16269e-07
2.16431e-07
2.16593e-07
2.16755e-07
2.16917e-07
2.1708e-07
2.17244e-07
2.17407e-07
2.17571e-07
2.17736e-07
2.17901e-07
2.18066e-07
2.18232e-07
2.18398e-07
2.18565e-07
2.18732e-07
2.189e-07
2.19068e-07
2.19237e-07
2.19407e-07
2.19577e-07
2.19748e-07
2.19919e-07
2.20091e-07
2.20264e-07
2.20438e-07
2.20612e-07
2.20788e-07
2.20964e-07
2.21141e-07
2.21319e-07
2.21498e-07
2.21679e-07
2.2186e-07
2.22043e-07
2.22227e-07
2.22413e-07
2.22599e-07
2.22788e-07
2.22978e-07
2.2317e-07
2.23364e-07
2.23559e-07
2.23757e-07
2.23957e-07
2.24159e-07
2.24364e-07
2.24571e-07
2.24781e-07
2.24994e-07
2.2521e-07
2.2543e-07
2.25653e-07
2.25879e-07
2.2611e-07
2.26345e-07
2.26584e-07
2.26828e-07
2.27077e-07
2.27331e-07
2.27591e-07
2.27857e-07
2.28129e-07
2.28408e-07
2.28693e-07
2.28987e-07
2.29288e-07
2.29597e-07
2.29916e-07
2.30244e-07
2.30581e-07
2.3093e-07
2.31289e-07
2.31661e-07
2.32044e-07
2.32441e-07
2.32852e-07
2.33277e-07
2.33718e-07
2.34175e-07
2.3465e-07
2.35143e-07
2.35655e-07
2.36187e-07
2.36741e-07
2.37317e-07
2.37917e-07
2.38543e-07
2.39194e-07
2.39874e-07
2.40582e-07
2.41322e-07
2.42093e-07
2.42899e-07
2.43741e-07
2.4462e-07
2.45539e-07
2.465e-07
2.47504e-07
2.48554e-07
2.49652e-07
2.508e-07
2.52001e-07
2.53258e-07
2.54573e-07
2.55949e-07
2.57388e-07
2.58895e-07
2.60471e-07
2.6212e-07
2.63846e-07
2.65651e-07
2.6754e-07
2.69517e-07
2.71584e-07
2.73746e-07
2.76008e-07
2.78373e-07
2.80846e-07
2.83431e-07
2.86133e-07
2.88956e-07
2.91907e-07
2.94989e-07
2.98209e-07
3.0157e-07
3.0508e-07
3.08743e-07
3.12565e-07
3.16552e-07
3.20711e-07
3.25046e-07
3.29565e-07
3.34273e-07
3.39177e-07
3.44284e-07
3.496e-07
3.55131e-07
3.60884e-07
3.66866e-07
3.73084e-07
3.79543e-07
3.86251e-07
3.93214e-07
4.00438e-07
4.0793e-07
4.15696e-07
4.23741e-07
4.32072e-07
4.40693e-07
4.4961e-07
4.58828e-07
4.6835e-07
4.78181e-07
4.88324e-07
4.98781e-07
5.09555e-07
5.20646e-07
5.32055e-07
5.43781e-07
5.55824e-07
5.6818e-07
5.80845e-07
5.93815e-07
6.07083e-07
6.20642e-07
6.34482e-07
6.48592e-07
6.6296e-07
6.7757e-07
6.92407e-07
7.07452e-07
7.22683e-07
7.3808e-07
7.53615e-07
7.69263e-07
7.84993e-07
8.00773e-07
8.16568e-07
8.32341e-07
8.48053e-07
8.63662e-07
8.79124e-07
8.94391e-07
9.09415e-07
9.24146e-07
9.38529e-07
9.52511e-07
9.66035e-07
9.79043e-07
9.91476e-07
1.00327e-06
1.01438e-06
1.02472e-06
1.03425e-06
1.04289e-06
1.0506e-06
1.0573e-06
1.06295e-06
1.06747e-06
1.07082e-06
1.07294e-06
1.07377e-06
1.07328e-06
1.07141e-06
1.06812e-06
1.06336e-06
1.05711e-06
1.04931e-06
1.03995e-06
1.02899e-06
1.01641e-06
1.00219e-06
9.86318e-07
9.68781e-07
9.49572e-07
9.28692e-07
9.06142e-07
8.81933e-07
8.5608e-07
8.28604e-07
7.99533e-07
7.68901e-07
7.36751e-07
7.03133e-07
6.68108e-07
6.31744e-07
5.94123e-07
5.55335e-07
5.15487e-07
4.74697e-07
4.33101e-07
3.90854e-07
3.48125e-07
3.05111e-07
2.62028e-07
2.19118e-07
1.76651e-07
1.34925e-07
9.42671e-08
5.50331e-08
1.76057e-08
)
;

boundaryField
{
    fixedWall
    {
        type            zeroGradient;
    }
    outlet
    {
        type            inletOutlet;
        inletValue      uniform 0;
        value           uniform 0;
    }
    defaultFaces
    {
        type            empty;
    }
}


// ************************************************************************* //
