/*--------------------------------*- C++ -*----------------------------------*\
| =========                 |                                                 |
| \\      /  F ield         | OpenFOAM: The Open Source CFD Toolbox           |
|  \\    /   O peration     | Version:  2406                                  |
|   \\  /    A nd           | Website:  www.openfoam.com                      |
|    \\/     M anipulation  |                                                 |
\*---------------------------------------------------------------------------*/
FoamFile
{
    version     2.0;
    format      ascii;
    arch        "LSB;label=32;scalar=64";
    class       surfaceScalarField;
    location    "13";
    object      phi;
}
// * * * * * * * * * * * * * * * * * * * * * * * * * * * * * * * * * * * * * //

dimensions      [1 0 -1 0 0 0 0];

oriented        oriented;

internalField   nonuniform List<scalar> 
999
(
-1.23615e-08
-4.194e-08
-8.28236e-08
-1.31311e-07
-1.8496e-07
-2.42112e-07
-3.01615e-07
-3.62643e-07
-4.24606e-07
-4.87071e-07
-5.49718e-07
-6.12303e-07
-6.74649e-07
-7.3662e-07
-7.98112e-07
-8.59049e-07
-9.19365e-07
-9.79023e-07
-1.03799e-06
-1.09624e-06
-1.15376e-06
-1.21054e-06
-1.26657e-06
-1.32184e-06
-1.37637e-06
-1.43014e-06
-1.48317e-06
-1.53546e-06
-1.58701e-06
-1.63782e-06
-1.68792e-06
-1.7373e-06
-1.78597e-06
-1.83393e-06
-1.88121e-06
-1.9278e-06
-1.97371e-06
-2.01896e-06
-2.06354e-06
-2.10747e-06
-2.15076e-06
-2.19341e-06
-2.23542e-06
-2.27682e-06
-2.3176e-06
-2.35777e-06
-2.39734e-06
-2.43632e-06
-2.47471e-06
-2.51252e-06
-2.54976e-06
-2.58643e-06
-2.62254e-06
-2.6581e-06
-2.6931e-06
-2.72757e-06
-2.7615e-06
-2.7949e-06
-2.82777e-06
-2.86013e-06
-2.89197e-06
-2.92331e-06
-2.95414e-06
-2.98447e-06
-3.01432e-06
-3.04368e-06
-3.07255e-06
-3.10095e-06
-3.12888e-06
-3.15634e-06
-3.18335e-06
-3.20989e-06
-3.23599e-06
-3.26164e-06
-3.28685e-06
-3.31162e-06
-3.33596e-06
-3.35988e-06
-3.38337e-06
-3.40644e-06
-3.4291e-06
-3.45136e-06
-3.47321e-06
-3.49466e-06
-3.51571e-06
-3.53638e-06
-3.55666e-06
-3.57656e-06
-3.59608e-06
-3.61524e-06
-3.63402e-06
-3.65244e-06
-3.6705e-06
-3.68821e-06
-3.70557e-06
-3.72258e-06
-3.73926e-06
-3.75559e-06
-3.7716e-06
-3.78728e-06
-3.80263e-06
-3.81766e-06
-3.83238e-06
-3.84679e-06
-3.8609e-06
-3.8747e-06
-3.8882e-06
-3.90141e-06
-3.91434e-06
-3.92697e-06
-3.93933e-06
-3.95141e-06
-3.96322e-06
-3.97476e-06
-3.98603e-06
-3.99705e-06
-4.00781e-06
-4.01832e-06
-4.02858e-06
-4.0386e-06
-4.04838e-06
-4.05793e-06
-4.06724e-06
-4.07633e-06
-4.08519e-06
-4.09383e-06
-4.10226e-06
-4.11048e-06
-4.11848e-06
-4.12629e-06
-4.13389e-06
-4.1413e-06
-4.14852e-06
-4.15554e-06
-4.16238e-06
-4.16904e-06
-4.17552e-06
-4.18183e-06
-4.18796e-06
-4.19393e-06
-4.19973e-06
-4.20538e-06
-4.21086e-06
-4.21619e-06
-4.22137e-06
-4.22641e-06
-4.2313e-06
-4.23604e-06
-4.24065e-06
-4.24513e-06
-4.24948e-06
-4.25369e-06
-4.25778e-06
-4.26175e-06
-4.2656e-06
-4.26933e-06
-4.27295e-06
-4.27645e-06
-4.27985e-06
-4.28314e-06
-4.28633e-06
-4.28942e-06
-4.29241e-06
-4.2953e-06
-4.2981e-06
-4.30081e-06
-4.30344e-06
-4.30597e-06
-4.30842e-06
-4.31079e-06
-4.31308e-06
-4.31529e-06
-4.31743e-06
-4.31949e-06
-4.32148e-06
-4.32343e-06
-4.32531e-06
-4.3271e-06
-4.32884e-06
-4.33051e-06
-4.33211e-06
-4.33365e-06
-4.33513e-06
-4.33657e-06
-4.33797e-06
-4.33932e-06
-4.34063e-06
-4.34189e-06
-4.3431e-06
-4.34426e-06
-4.34538e-06
-4.34645e-06
-4.34749e-06
-4.34848e-06
-4.34944e-06
-4.35036e-06
-4.35124e-06
-4.35209e-06
-4.3529e-06
-4.35368e-06
-4.35444e-06
-4.35516e-06
-4.35585e-06
-4.35652e-06
-4.35716e-06
-4.35778e-06
-4.35837e-06
-4.35893e-06
-4.35948e-06
-4.35999e-06
-4.36049e-06
-4.36097e-06
-4.36143e-06
-4.36187e-06
-4.36229e-06
-4.36269e-06
-4.36308e-06
-4.36345e-06
-4.3638e-06
-4.36414e-06
-4.36446e-06
-4.36477e-06
-4.36506e-06
-4.36534e-06
-4.36561e-06
-4.36587e-06
-4.36612e-06
-4.36635e-06
-4.36657e-06
-4.36679e-06
-4.36699e-06
-4.36718e-06
-4.36737e-06
-4.36754e-06
-4.36771e-06
-4.36787e-06
-4.36802e-06
-4.36817e-06
-4.36831e-06
-4.36844e-06
-4.36856e-06
-4.36868e-06
-4.36879e-06
-4.3689e-06
-4.369e-06
-4.3691e-06
-4.36919e-06
-4.36928e-06
-4.36936e-06
-4.36944e-06
-4.36951e-06
-4.36958e-06
-4.36965e-06
-4.36971e-06
-4.36977e-06
-4.36982e-06
-4.36988e-06
-4.36993e-06
-4.36998e-06
-4.37002e-06
-4.37006e-06
-4.3701e-06
-4.37014e-06
-4.37017e-06
-4.37021e-06
-4.37024e-06
-4.37027e-06
-4.37029e-06
-4.37032e-06
-4.37034e-06
-4.37036e-06
-4.37039e-06
-4.37041e-06
-4.37042e-06
-4.37044e-06
-4.37045e-06
-4.37047e-06
-4.37048e-06
-4.37049e-06
-4.37051e-06
-4.37052e-06
-4.37052e-06
-4.37053e-06
-4.37054e-06
-4.37055e-06
-4.37055e-06
-4.37056e-06
-4.37057e-06
-4.37057e-06
-4.37057e-06
-4.37058e-06
-4.37058e-06
-4.37058e-06
-4.37058e-06
-4.37059e-06
-4.37059e-06
-4.37059e-06
-4.37059e-06
-4.37059e-06
-4.37059e-06
-4.37059e-06
-4.37059e-06
-4.37059e-06
-4.37059e-06
-4.37059e-06
-4.37058e-06
-4.37058e-06
-4.37058e-06
-4.37058e-06
-4.37058e-06
-4.37057e-06
-4.37057e-06
-4.37057e-06
-4.37057e-06
-4.37057e-06
-4.37056e-06
-4.37056e-06
-4.37056e-06
-4.37055e-06
-4.37055e-06
-4.37055e-06
-4.37055e-06
-4.37054e-06
-4.37054e-06
-4.37054e-06
-4.37054e-06
-4.37054e-06
-4.37053e-06
-4.37053e-06
-4.37053e-06
-4.37052e-06
-4.37052e-06
-4.37052e-06
-4.37052e-06
-4.37051e-06
-4.37051e-06
-4.37051e-06
-4.37051e-06
-4.3705e-06
-4.3705e-06
-4.3705e-06
-4.3705e-06
-4.3705e-06
-4.37049e-06
-4.37049e-06
-4.37049e-06
-4.37049e-06
-4.37049e-06
-4.37049e-06
-4.37048e-06
-4.37048e-06
-4.37048e-06
-4.37048e-06
-4.37048e-06
-4.37048e-06
-4.37047e-06
-4.37047e-06
-4.37047e-06
-4.37047e-06
-4.37047e-06
-4.37047e-06
-4.37047e-06
-4.37047e-06
-4.37046e-06
-4.37046e-06
-4.37046e-06
-4.37046e-06
-4.37046e-06
-4.37046e-06
-4.37046e-06
-4.37046e-06
-4.37046e-06
-4.37046e-06
-4.37046e-06
-4.37046e-06
-4.37046e-06
-4.37046e-06
-4.37046e-06
-4.37046e-06
-4.37046e-06
-4.37046e-06
-4.37046e-06
-4.37046e-06
-4.37046e-06
-4.37046e-06
-4.37046e-06
-4.37046e-06
-4.37046e-06
-4.37046e-06
-4.37046e-06
-4.37046e-06
-4.37046e-06
-4.37046e-06
-4.37046e-06
-4.37046e-06
-4.37046e-06
-4.37046e-06
-4.37047e-06
-4.37047e-06
-4.37047e-06
-4.37047e-06
-4.37047e-06
-4.37047e-06
-4.37047e-06
-4.37047e-06
-4.37047e-06
-4.37047e-06
-4.37047e-06
-4.37047e-06
-4.37047e-06
-4.37047e-06
-4.37047e-06
-4.37047e-06
-4.37047e-06
-4.37047e-06
-4.37047e-06
-4.37047e-06
-4.37047e-06
-4.37047e-06
-4.37047e-06
-4.37047e-06
-4.37047e-06
-4.37047e-06
-4.37047e-06
-4.37047e-06
-4.37048e-06
-4.37048e-06
-4.37048e-06
-4.37048e-06
-4.37048e-06
-4.37048e-06
-4.37048e-06
-4.37048e-06
-4.37048e-06
-4.37048e-06
-4.37048e-06
-4.37048e-06
-4.37048e-06
-4.37048e-06
-4.37048e-06
-4.37048e-06
-4.37048e-06
-4.37048e-06
-4.37048e-06
-4.37048e-06
-4.37048e-06
-4.37048e-06
-4.37048e-06
-4.37048e-06
-4.37048e-06
-4.37048e-06
-4.37048e-06
-4.37048e-06
-4.37048e-06
-4.37048e-06
-4.37048e-06
-4.37048e-06
-4.37048e-06
-4.37048e-06
-4.37048e-06
-4.37048e-06
-4.37048e-06
-4.37048e-06
-4.37048e-06
-4.37048e-06
-4.37048e-06
-4.37048e-06
-4.37048e-06
-4.37048e-06
-4.37048e-06
-4.37048e-06
-4.37048e-06
-4.37048e-06
-4.37048e-06
-4.37048e-06
-4.37048e-06
-4.37048e-06
-4.37048e-06
-4.37048e-06
-4.37048e-06
-4.37048e-06
-4.37048e-06
-4.37048e-06
-4.37048e-06
-4.37048e-06
-4.37048e-06
-4.37048e-06
-4.37048e-06
-4.37048e-06
-4.37048e-06
-4.37048e-06
-4.37047e-06
-4.37047e-06
-4.37047e-06
-4.37047e-06
-4.37047e-06
-4.37047e-06
-4.37047e-06
-4.37047e-06
-4.37047e-06
-4.37047e-06
-4.37047e-06
-4.37047e-06
-4.37047e-06
-4.37047e-06
-4.37047e-06
-4.37047e-06
-4.37047e-06
-4.37047e-06
-4.37047e-06
-4.37047e-06
-4.37047e-06
-4.37047e-06
-4.37047e-06
-4.37047e-06
-4.37047e-06
-4.37047e-06
-4.37047e-06
-4.37047e-06
-4.37047e-06
-4.37047e-06
-4.37047e-06
-4.37047e-06
-4.37047e-06
-4.37047e-06
-4.37047e-06
-4.37047e-06
-4.37047e-06
-4.37047e-06
-4.37047e-06
-4.37047e-06
-4.37046e-06
-4.37046e-06
-4.37046e-06
-4.37046e-06
-4.37046e-06
-4.37046e-06
-4.37046e-06
-4.37046e-06
-4.37046e-06
-4.37046e-06
-4.37046e-06
-4.37046e-06
-4.37046e-06
-4.37046e-06
-4.37046e-06
-4.37046e-06
-4.37046e-06
-4.37046e-06
-4.37045e-06
-4.37045e-06
-4.37045e-06
-4.37045e-06
-4.37045e-06
-4.37045e-06
-4.37045e-06
-4.37045e-06
-4.37045e-06
-4.37045e-06
-4.37045e-06
-4.37045e-06
-4.37045e-06
-4.37045e-06
-4.37045e-06
-4.37045e-06
-4.37045e-06
-4.37045e-06
-4.37045e-06
-4.37045e-06
-4.37044e-06
-4.37044e-06
-4.37044e-06
-4.37044e-06
-4.37044e-06
-4.37044e-06
-4.37044e-06
-4.37044e-06
-4.37044e-06
-4.37044e-06
-4.37044e-06
-4.37044e-06
-4.37044e-06
-4.37044e-06
-4.37044e-06
-4.37044e-06
-4.37044e-06
-4.37044e-06
-4.37044e-06
-4.37044e-06
-4.37044e-06
-4.37044e-06
-4.37044e-06
-4.37044e-06
-4.37044e-06
-4.37044e-06
-4.37044e-06
-4.37044e-06
-4.37044e-06
-4.37044e-06
-4.37044e-06
-4.37044e-06
-4.37044e-06
-4.37044e-06
-4.37044e-06
-4.37044e-06
-4.37044e-06
-4.37044e-06
-4.37044e-06
-4.37044e-06
-4.37044e-06
-4.37044e-06
-4.37044e-06
-4.37044e-06
-4.37044e-06
-4.37044e-06
-4.37044e-06
-4.37044e-06
-4.37044e-06
-4.37044e-06
-4.37044e-06
-4.37044e-06
-4.37044e-06
-4.37044e-06
-4.37044e-06
-4.37044e-06
-4.37044e-06
-4.37044e-06
-4.37044e-06
-4.37044e-06
-4.37044e-06
-4.37044e-06
-4.37044e-06
-4.37044e-06
-4.37044e-06
-4.37044e-06
-4.37044e-06
-4.37044e-06
-4.37044e-06
-4.37044e-06
-4.37044e-06
-4.37044e-06
-4.37044e-06
-4.37044e-06
-4.37044e-06
-4.37044e-06
-4.37044e-06
-4.37044e-06
-4.37044e-06
-4.37044e-06
-4.37044e-06
-4.37044e-06
-4.37044e-06
-4.37044e-06
-4.37044e-06
-4.37043e-06
-4.37043e-06
-4.37043e-06
-4.37043e-06
-4.37043e-06
-4.37043e-06
-4.37043e-06
-4.37043e-06
-4.37043e-06
-4.37043e-06
-4.37043e-06
-4.37043e-06
-4.37043e-06
-4.37043e-06
-4.37042e-06
-4.37042e-06
-4.37042e-06
-4.37042e-06
-4.37042e-06
-4.37042e-06
-4.37042e-06
-4.37042e-06
-4.37042e-06
-4.37041e-06
-4.37041e-06
-4.37041e-06
-4.37041e-06
-4.37041e-06
-4.37041e-06
-4.37041e-06
-4.37041e-06
-4.37041e-06
-4.3704e-06
-4.3704e-06
-4.3704e-06
-4.3704e-06
-4.3704e-06
-4.3704e-06
-4.3704e-06
-4.3704e-06
-4.3704e-06
-4.3704e-06
-4.3704e-06
-4.3704e-06
-4.3704e-06
-4.3704e-06
-4.3704e-06
-4.3704e-06
-4.3704e-06
-4.3704e-06
-4.3704e-06
-4.3704e-06
-4.3704e-06
-4.3704e-06
-4.3704e-06
-4.3704e-06
-4.3704e-06
-4.3704e-06
-4.3704e-06
-4.3704e-06
-4.37041e-06
-4.37041e-06
-4.37041e-06
-4.37041e-06
-4.37041e-06
-4.37042e-06
-4.37042e-06
-4.37042e-06
-4.37043e-06
-4.37043e-06
-4.37044e-06
-4.37044e-06
-4.37044e-06
-4.37045e-06
-4.37046e-06
-4.37046e-06
-4.37047e-06
-4.37048e-06
-4.37048e-06
-4.37049e-06
-4.3705e-06
-4.37051e-06
-4.37052e-06
-4.37053e-06
-4.37055e-06
-4.37056e-06
-4.37057e-06
-4.37059e-06
-4.37061e-06
-4.37062e-06
-4.37064e-06
-4.37066e-06
-4.37069e-06
-4.37071e-06
-4.37073e-06
-4.37076e-06
-4.37079e-06
-4.37082e-06
-4.37085e-06
-4.37089e-06
-4.37093e-06
-4.37097e-06
-4.37102e-06
-4.37106e-06
-4.37111e-06
-4.37117e-06
-4.37122e-06
-4.37129e-06
-4.37135e-06
-4.37142e-06
-4.3715e-06
-4.37158e-06
-4.37167e-06
-4.37176e-06
-4.37186e-06
-4.37197e-06
-4.37208e-06
-4.3722e-06
-4.37233e-06
-4.37247e-06
-4.37262e-06
-4.37278e-06
-4.37295e-06
-4.37312e-06
-4.37331e-06
-4.37352e-06
-4.37373e-06
-4.37397e-06
-4.37421e-06
-4.37447e-06
-4.37475e-06
-4.37505e-06
-4.37536e-06
-4.3757e-06
-4.37606e-06
-4.37643e-06
-4.37684e-06
-4.37726e-06
-4.37772e-06
-4.3782e-06
-4.37871e-06
-4.37925e-06
-4.37983e-06
-4.38044e-06
-4.38109e-06
-4.38177e-06
-4.3825e-06
-4.38327e-06
-4.38408e-06
-4.38494e-06
-4.38585e-06
-4.38681e-06
-4.38783e-06
-4.38891e-06
-4.39004e-06
-4.39124e-06
-4.39251e-06
-4.39384e-06
-4.39526e-06
-4.39674e-06
-4.39831e-06
-4.39996e-06
-4.4017e-06
-4.40354e-06
-4.40547e-06
-4.4075e-06
-4.40964e-06
-4.41189e-06
-4.41426e-06
-4.41674e-06
-4.41936e-06
-4.4221e-06
-4.42498e-06
-4.42801e-06
-4.43119e-06
-4.43452e-06
-4.43801e-06
-4.44168e-06
-4.44551e-06
-4.44954e-06
-4.45375e-06
-4.45816e-06
-4.46277e-06
-4.4676e-06
-4.47265e-06
-4.47793e-06
-4.48345e-06
-4.48922e-06
-4.49524e-06
-4.50153e-06
-4.5081e-06
-4.51495e-06
-4.52209e-06
-4.52954e-06
-4.53731e-06
-4.54541e-06
-4.55384e-06
-4.56262e-06
-4.57176e-06
-4.58128e-06
-4.59118e-06
-4.60147e-06
-4.61218e-06
-4.62331e-06
-4.63487e-06
-4.64688e-06
-4.65935e-06
-4.67229e-06
-4.68572e-06
-4.69966e-06
-4.71411e-06
-4.72909e-06
-4.74462e-06
-4.76071e-06
-4.77738e-06
-4.79463e-06
-4.8125e-06
-4.83099e-06
-4.85011e-06
-4.86989e-06
-4.89034e-06
-4.91148e-06
-4.93332e-06
-4.95589e-06
-4.97919e-06
-5.00325e-06
-5.02808e-06
-5.05371e-06
-5.08014e-06
-5.10739e-06
-5.13549e-06
-5.16446e-06
-5.1943e-06
-5.22505e-06
-5.25671e-06
-5.28931e-06
-5.32287e-06
-5.3574e-06
-5.39293e-06
-5.42947e-06
-5.46704e-06
-5.50567e-06
-5.54537e-06
-5.58616e-06
-5.62806e-06
-5.6711e-06
-5.71529e-06
-5.76066e-06
-5.80721e-06
-5.85499e-06
-5.904e-06
-5.95426e-06
-6.00581e-06
-6.05865e-06
-6.11281e-06
-6.16832e-06
-6.22519e-06
-6.28345e-06
-6.34311e-06
-6.40421e-06
-6.46676e-06
-6.53078e-06
-6.59631e-06
-6.66336e-06
-6.73195e-06
-6.80211e-06
-6.87387e-06
-6.94725e-06
-7.02227e-06
-7.09896e-06
-7.17734e-06
-7.25744e-06
-7.33929e-06
-7.42291e-06
-7.50833e-06
-7.59559e-06
-7.68469e-06
-7.77568e-06
-7.86859e-06
-7.96344e-06
-8.06027e-06
-8.1591e-06
-8.25998e-06
-8.36293e-06
-8.46799e-06
-8.57519e-06
-8.68457e-06
-8.79617e-06
-8.91003e-06
-9.02618e-06
-9.14467e-06
-9.26554e-06
-9.38883e-06
-9.5146e-06
-9.64287e-06
-9.7737e-06
-9.90713e-06
-1.00432e-05
-1.0182e-05
-1.03235e-05
-1.04678e-05
-1.06149e-05
-1.0765e-05
-1.09179e-05
-1.10739e-05
-1.12323e-05
-1.13941e-05
-1.15601e-05
-1.173e-05
-1.19035e-05
-1.20806e-05
-1.22612e-05
-1.24454e-05
-1.26333e-05
-1.2825e-05
-1.30206e-05
-1.32201e-05
-1.34237e-05
-1.36314e-05
-1.38433e-05
-1.40594e-05
-1.42797e-05
-1.45042e-05
-1.47329e-05
-1.49656e-05
-1.52024e-05
-1.54431e-05
-1.56873e-05
-1.59348e-05
-1.61853e-05
-1.64381e-05
-1.66926e-05
-1.6948e-05
-1.72033e-05
-1.74572e-05
-1.77082e-05
-1.79544e-05
-1.81935e-05
-1.84227e-05
-1.86388e-05
-1.88378e-05
-1.90151e-05
-1.91652e-05
-1.92819e-05
-1.93579e-05
)
;

boundaryField
{
    fixedWall
    {
        type            calculated;
        value           uniform 0;
    }
    outlet
    {
        type            calculated;
        value           uniform -1.93852e-05;
    }
    defaultFaces
    {
        type            empty;
    }
}


// ************************************************************************* //
