/*--------------------------------*- C++ -*----------------------------------*\
| =========                 |                                                 |
| \\      /  F ield         | OpenFOAM: The Open Source CFD Toolbox           |
|  \\    /   O peration     | Version:  2406                                  |
|   \\  /    A nd           | Website:  www.openfoam.com                      |
|    \\/     M anipulation  |                                                 |
\*---------------------------------------------------------------------------*/
FoamFile
{
    version     2.0;
    format      ascii;
    arch        "LSB;label=32;scalar=64";
    class       volScalarField;
    location    "13";
    object      Qdot;
}
// * * * * * * * * * * * * * * * * * * * * * * * * * * * * * * * * * * * * * //

dimensions      [1 -1 -3 0 0 0 0];

internalField   nonuniform List<scalar> 
1000
(
4.98401e-14
4.98264e-14
-1.62266e-16
-1.22289e-15
3.80442e-09
1.52177e-08
5.189e-08
1.562e-07
4.37946e-07
1.08414e-06
2.43914e-06
5.07406e-06
9.8771e-06
1.81285e-05
3.16157e-05
5.26881e-05
8.43827e-05
0.000130392
0.000195128
0.000283709
0.000401864
0.000555888
0.000752502
0.000998719
0.00130167
0.00166842
0.00210582
0.00262026
0.00321756
0.00390274
0.00467992
0.00555219
0.00652149
0.00758855
0.00875289
0.0100127
0.0113651
0.0128059
0.0143296
0.0159301
0.0176001
0.0193314
0.0211154
0.0229428
0.024804
0.026689
0.0285879
0.0304907
0.0323876
0.0342691
0.0361261
0.0379499
0.0397323
0.0414659
0.0431439
0.0447602
0.0463093
0.0477867
0.0491884
0.0505114
0.0517532
0.0529121
0.053987
0.0549776
0.0558841
0.056707
0.0574476
0.0581076
0.0586889
0.059194
0.0596255
0.0599864
0.0602796
0.0605086
0.0606768
0.0607875
0.0608443
0.0608509
0.0608107
0.0607271
0.0606038
0.060444
0.0602511
0.0600281
0.0597782
0.0595043
0.0592092
0.0588956
0.058566
0.0582227
0.0578681
0.0575042
0.057133
0.0567563
0.0563758
0.0559931
0.0556095
0.0552265
0.0548452
0.0544666
0.0540919
0.0537218
0.0533571
0.0529986
0.0526469
0.0523024
0.0519658
0.0516373
0.0513173
0.0510062
0.050704
0.0504111
0.0501275
0.0498534
0.0495887
0.0493335
0.0490879
0.0488517
0.0486249
0.0484074
0.0481991
0.0479999
0.0478096
0.0476282
0.0474554
0.047291
0.0471349
0.0469869
0.0468468
0.0467144
0.0465895
0.0464719
0.0463613
0.0462576
0.0461605
0.04607
0.0459856
0.0459073
0.0458348
0.0457679
0.0457065
0.0456503
0.0455992
0.0455529
0.0455113
0.0454741
0.0454413
0.0454126
0.0453879
0.045367
0.0453498
0.0453361
0.0453257
0.0453185
0.0453144
0.0453132
0.0453148
0.0453191
0.045326
0.0453352
0.0453468
0.0453606
0.0453766
0.0453945
0.0454143
0.0454359
0.0454593
0.0454843
0.0455109
0.0455389
0.0455684
0.0455992
0.0456312
0.0456645
0.0456988
0.0457343
0.0457708
0.0458081
0.0458465
0.0458856
0.0459255
0.0459663
0.0460077
0.04605
0.0460928
0.0461363
0.0461804
0.046225
0.0462701
0.0463157
0.0463618
0.0464083
0.0464552
0.0465025
0.0465502
0.0465982
0.0466464
0.046695
0.046744
0.0467932
0.0468427
0.0468924
0.0469422
0.0469924
0.0470427
0.0470933
0.0471441
0.047195
0.0472458
0.0472971
0.0473485
0.0474
0.0474517
0.0475034
0.0475551
0.0476072
0.0476593
0.0477115
0.0477638
0.0478162
0.0478687
0.0479213
0.047974
0.0480267
0.0480795
0.0481325
0.0481854
0.0482385
0.0482916
0.0483448
0.0483981
0.0484515
0.0485049
0.0485584
0.0486119
0.0486655
0.0487192
0.0487729
0.0488267
0.0488806
0.0489345
0.0489885
0.0490426
0.0490967
0.0491509
0.0492052
0.0492595
0.0493137
0.0493681
0.0494226
0.0494772
0.0495319
0.0495865
0.0496413
0.0496961
0.049751
0.0498059
0.049861
0.049916
0.0499712
0.0500264
0.0500817
0.050137
0.0501924
0.0502479
0.0503034
0.0503591
0.0504147
0.0504705
0.0505263
0.0505822
0.0506382
0.0506943
0.0507504
0.0508066
0.0508628
0.0509192
0.0509756
0.0510321
0.0510886
0.0511453
0.051202
0.0512588
0.0513156
0.0513726
0.0514296
0.0514867
0.0515438
0.0516011
0.0516584
0.0517158
0.0517733
0.0518309
0.0518886
0.0519463
0.0520042
0.0520621
0.0521201
0.0521782
0.0522363
0.0522946
0.052353
0.0524114
0.05247
0.0525284
0.0525871
0.0526457
0.0527046
0.0527636
0.0528226
0.0528818
0.052941
0.0530003
0.0530597
0.0531192
0.0531788
0.0532384
0.0532982
0.053358
0.053418
0.053478
0.0535382
0.0535984
0.0536587
0.0537191
0.0537796
0.0538403
0.053901
0.0539618
0.0540227
0.0540837
0.0541448
0.054206
0.0542674
0.0543286
0.0543901
0.0544517
0.0545134
0.0545752
0.0546371
0.0546991
0.0547612
0.0548234
0.0548858
0.0549482
0.0550107
0.0550733
0.055136
0.0551989
0.0552618
0.0553249
0.055388
0.0554513
0.0555146
0.0555781
0.0556417
0.0557054
0.0557692
0.0558331
0.0558972
0.0559613
0.0560255
0.0560899
0.0561544
0.056219
0.0562835
0.0563483
0.0564132
0.0564783
0.0565435
0.0566085
0.0566739
0.0567394
0.056805
0.0568708
0.0569366
0.0570026
0.0570686
0.0571348
0.0572011
0.0572674
0.0573339
0.0574005
0.0574673
0.0575342
0.0576012
0.0576683
0.0577355
0.0578028
0.0578703
0.0579379
0.0580056
0.0580734
0.0581414
0.0582094
0.0582776
0.0583459
0.0584143
0.0584829
0.0585516
0.0586204
0.0586893
0.0587583
0.0588275
0.0588968
0.0589662
0.0590357
0.0591053
0.0591751
0.059245
0.059315
0.0593851
0.0594554
0.0595258
0.0595963
0.0596669
0.0597377
0.0598086
0.0598796
0.0599508
0.0600221
0.0600935
0.060165
0.0602367
0.0603085
0.0603804
0.0604524
0.0605246
0.0605969
0.0606693
0.0607419
0.0608146
0.0608874
0.0609604
0.0610335
0.0611067
0.06118
0.0612535
0.0613271
0.0614009
0.0614748
0.0615488
0.0616227
0.061697
0.0617715
0.061846
0.0619207
0.0619955
0.0620705
0.0621456
0.0622209
0.0622963
0.0623716
0.0624472
0.062523
0.062599
0.062675
0.0627512
0.0628276
0.0629038
0.0629804
0.0630572
0.0631341
0.063211
0.0632882
0.0633655
0.0634429
0.0635205
0.0635982
0.0636761
0.0637541
0.0638323
0.0639105
0.063989
0.0640676
0.0641463
0.0642251
0.0643042
0.0643833
0.0644626
0.0645421
0.0646217
0.0647014
0.0647813
0.0648614
0.0649416
0.0650219
0.0651024
0.0651831
0.0652638
0.0653448
0.0654259
0.0655071
0.0655885
0.0656701
0.0657518
0.0658336
0.0659156
0.0659978
0.0660801
0.0661626
0.0662452
0.066328
0.0664109
0.066494
0.0665772
0.0666606
0.0667442
0.0668279
0.0669118
0.0669958
0.06708
0.0671643
0.0672488
0.0673335
0.0674183
0.0675033
0.0675885
0.0676738
0.0677592
0.0678449
0.0679307
0.0680166
0.0681027
0.068189
0.0682755
0.0683621
0.0684488
0.0685358
0.0686229
0.0687101
0.0687976
0.0688852
0.068973
0.0690609
0.069149
0.0692373
0.0693257
0.0694143
0.0695031
0.069592
0.0696811
0.0697704
0.0698599
0.0699495
0.0700393
0.0701293
0.0702194
0.0703098
0.0704002
0.0704909
0.0705818
0.0706728
0.070764
0.0708553
0.0709469
0.0710386
0.0711305
0.0712225
0.0713148
0.0714072
0.0714998
0.0715926
0.0716855
0.0717787
0.071872
0.0719655
0.0720592
0.0721531
0.0722471
0.0723414
0.0724358
0.0725304
0.0726252
0.0727202
0.0728153
0.0729106
0.0730062
0.0731019
0.0731978
0.0732939
0.0733902
0.0734867
0.0735834
0.07368
0.0737771
0.0738744
0.0739718
0.0740695
0.0741673
0.0742653
0.0743635
0.074462
0.0745606
0.0746594
0.0747584
0.0748575
0.0749569
0.0750565
0.0751563
0.0752563
0.0753565
0.0754569
0.0755575
0.0756583
0.0757593
0.0758605
0.0759619
0.0760635
0.0761653
0.0762673
0.0763695
0.076472
0.0765746
0.0766774
0.0767805
0.0768838
0.0769872
0.0770909
0.0771948
0.0772989
0.0774033
0.0775078
0.0776125
0.0777175
0.0778227
0.0779281
0.0780337
0.0781395
0.0782453
0.0783511
0.0784576
0.0785643
0.0786713
0.0787785
0.0788859
0.0789935
0.0791013
0.0792094
0.0793177
0.0794262
0.0795349
0.0796438
0.079753
0.0798624
0.079972
0.0800819
0.0801919
0.0803022
0.0804128
0.0805235
0.0806345
0.0807457
0.0808572
0.0809683
0.0810801
0.0811922
0.0813045
0.0814171
0.0815298
0.0816429
0.0817561
0.0818696
0.0819833
0.0820972
0.0822114
0.0823259
0.0824405
0.0825554
0.0826705
0.0827859
0.0829015
0.0830174
0.0831335
0.0832498
0.0833664
0.0834832
0.0836003
0.0837176
0.0838351
0.0839529
0.0840709
0.0841892
0.0843077
0.0844265
0.0845456
0.0846648
0.0847844
0.0849041
0.0850242
0.0851445
0.085265
0.0853858
0.0855069
0.0856282
0.0857498
0.0858717
0.0859938
0.0861159
0.0862379
0.0863607
0.0864838
0.0866071
0.0867307
0.0868546
0.0869787
0.0871031
0.0872277
0.0873526
0.0874778
0.0876033
0.087729
0.087855
0.0879812
0.0881078
0.0882346
0.0883617
0.0884884
0.088616
0.0887439
0.088872
0.0890004
0.0891291
0.089258
0.0893873
0.0895168
0.0896466
0.0897766
0.089907
0.0900377
0.0901686
0.0902998
0.0904313
0.0905631
0.0906952
0.0908276
0.0909602
0.0910932
0.0912264
0.0913599
0.0914938
0.0916279
0.0917623
0.091897
0.092032
0.0921673
0.0923029
0.0924388
0.0925749
0.0927114
0.0928482
0.0929853
0.0931226
0.0932603
0.0933983
0.0935365
0.0936751
0.0938139
0.0939531
0.0940926
0.0942323
0.0943724
0.0945127
0.0946534
0.0947943
0.0949356
0.0950771
0.095219
0.0953611
0.0955036
0.0956463
0.0957894
0.0959327
0.0960764
0.0962203
0.0963646
0.0965092
0.0966541
0.0967993
0.0969448
0.0970906
0.0972367
0.0973832
0.09753
0.0976771
0.0978246
0.0979724
0.0981205
0.098269
0.0984179
0.0985671
0.0987168
0.0988668
0.0990172
0.0991681
0.0993194
0.0994711
0.0996233
0.099776
0.0999293
0.100083
0.100237
0.100392
0.100548
0.100704
0.100861
0.101019
0.101177
0.101337
0.101497
0.101658
0.101821
0.101984
0.102149
0.102315
0.102482
0.102651
0.102821
0.102993
0.103167
0.103342
0.10352
0.1037
0.103882
0.104067
0.104255
0.104446
0.10464
0.104837
0.105038
0.105242
0.105451
0.105665
0.105883
0.106107
0.106335
0.10657
0.106811
0.107059
0.107314
0.107577
0.107847
0.108127
0.108415
0.108714
0.109023
0.109343
0.109675
0.110019
0.110377
0.110749
0.111136
0.111539
0.111959
0.112397
0.112853
0.11333
0.113827
0.114347
0.11489
0.115457
0.116051
0.116672
0.117322
0.118002
0.118714
0.119458
0.120238
0.121054
0.121909
0.122803
0.123739
0.124718
0.125743
0.126815
0.127935
0.129107
0.130332
0.131612
0.132948
0.134343
0.135798
0.137315
0.138897
0.140545
0.14226
0.144044
0.145898
0.147824
0.149822
0.151895
0.154041
0.156262
0.158557
0.160928
0.163371
0.165888
0.168476
0.171133
0.173857
0.176644
0.179491
0.182392
0.185343
0.188337
0.191368
0.194426
0.197502
0.200587
0.203669
0.206735
0.209772
0.212763
0.215693
0.218545
0.221298
0.223933
0.226428
0.22876
0.230906
0.232839
0.234536
0.235969
0.237111
0.237935
0.238414
0.238522
0.238231
0.237517
0.236356
0.234727
0.23261
0.229989
0.22685
0.223185
0.218988
0.214259
0.209003
0.203231
0.196959
0.190209
0.183011
0.1754
0.167416
0.159106
0.150523
0.141724
0.13277
0.123725
0.114658
0.105635
0.0967242
0.0879934
0.0795065
0.0713238
0.0635007
0.0560863
0.0491223
0.0426425
0.0366734
0.0312766
0.0263583
0.0219657
0.018089
0.0147099
0.011803
0.00933658
0.00727424
0.00557633
0.00420131
0.00310716
0.0022527
0.00159869
0.00110877
0.000750184
0.000494183
0.000316273
0.000196178
0.000117624
6.79723e-05
3.77339e-05
2.005e-05
1.01565e-05
4.88251e-06
2.21463e-06
9.44123e-07
3.74724e-07
1.37809e-07
4.70019e-08
1.37521e-08
3.63293e-09
1.16445e-09
4.75553e-10
-2.37777e-10
-1.19338e-17
-1.4533e-18
2.15097e-10
-6.987e-21
-8.08807e-11
0
)
;

boundaryField
{
    fixedWall
    {
        type            calculated;
        value           uniform 0;
    }
    outlet
    {
        type            calculated;
        value           uniform 0;
    }
    defaultFaces
    {
        type            empty;
    }
}


// ************************************************************************* //
