/*--------------------------------*- C++ -*----------------------------------*\
| =========                 |                                                 |
| \\      /  F ield         | OpenFOAM: The Open Source CFD Toolbox           |
|  \\    /   O peration     | Version:  2406                                  |
|   \\  /    A nd           | Website:  www.openfoam.com                      |
|    \\/     M anipulation  |                                                 |
\*---------------------------------------------------------------------------*/
FoamFile
{
    version     2.0;
    format      ascii;
    arch        "LSB;label=32;scalar=64";
    class       volScalarField;
    location    "13";
    object      T;
}
// * * * * * * * * * * * * * * * * * * * * * * * * * * * * * * * * * * * * * //

dimensions      [0 0 0 1 0 0 0];

internalField   nonuniform List<scalar> 
1000
(
304.225
325.101
344.58
362.867
380.119
396.46
411.991
426.794
440.938
454.483
467.477
479.965
491.984
503.568
514.744
525.539
535.977
546.078
555.86
565.341
574.536
583.459
592.123
600.54
608.72
616.674
624.411
631.94
639.268
646.403
653.352
660.122
666.719
673.148
679.416
685.526
691.485
697.297
702.966
708.496
713.891
719.155
724.292
729.305
734.198
738.973
743.633
748.182
752.623
756.957
761.188
765.318
769.35
773.286
777.127
780.877
784.538
788.11
791.598
795.001
798.323
801.565
804.729
807.817
810.83
813.769
816.637
819.436
822.166
824.829
827.426
829.96
832.43
834.84
837.189
839.48
841.713
843.89
846.012
848.081
850.096
852.061
853.974
855.839
857.655
859.425
861.148
862.826
864.46
866.05
867.599
869.106
870.573
872.001
873.39
874.741
876.056
877.335
878.578
879.787
880.963
882.106
883.217
884.296
885.345
886.365
887.355
888.317
889.251
890.158
891.039
891.894
892.723
893.529
894.31
895.068
895.803
896.517
897.208
897.879
898.529
899.159
899.77
900.362
900.935
901.491
902.029
902.549
903.054
903.542
904.014
904.472
904.914
905.342
905.756
906.157
906.544
906.918
907.28
907.63
907.968
908.294
908.609
908.914
909.208
909.492
909.766
910.03
910.285
910.531
910.769
910.998
911.219
911.431
911.637
911.834
912.025
912.208
912.385
912.555
912.719
912.877
913.029
913.175
913.316
913.451
913.581
913.706
913.826
913.942
914.053
914.159
914.262
914.36
914.455
914.545
914.632
914.716
914.796
914.873
914.947
915.018
915.085
915.15
915.212
915.272
915.329
915.384
915.436
915.487
915.535
915.581
915.625
915.667
915.707
915.746
915.783
915.818
915.851
915.883
915.914
915.943
915.971
915.998
916.023
916.047
916.071
916.093
916.114
916.134
916.153
916.171
916.188
916.205
916.22
916.235
916.249
916.263
916.276
916.288
916.299
916.31
916.321
916.331
916.34
916.349
916.358
916.366
916.373
916.38
916.387
916.394
916.4
916.405
916.411
916.416
916.421
916.425
916.43
916.434
916.438
916.441
916.445
916.448
916.451
916.454
916.457
916.459
916.462
916.464
916.466
916.468
916.47
916.471
916.473
916.475
916.476
916.477
916.479
916.48
916.481
916.482
916.483
916.484
916.484
916.485
916.486
916.487
916.487
916.488
916.488
916.489
916.489
916.49
916.49
916.49
916.491
916.491
916.491
916.491
916.492
916.492
916.492
916.492
916.492
916.493
916.493
916.493
916.493
916.493
916.493
916.493
916.494
916.494
916.494
916.494
916.494
916.494
916.494
916.494
916.494
916.494
916.494
916.495
916.495
916.495
916.495
916.495
916.495
916.495
916.495
916.495
916.495
916.495
916.496
916.496
916.496
916.496
916.496
916.496
916.496
916.496
916.496
916.497
916.497
916.497
916.497
916.497
916.497
916.497
916.498
916.498
916.498
916.498
916.498
916.498
916.499
916.499
916.499
916.499
916.499
916.499
916.5
916.5
916.5
916.5
916.5
916.5
916.501
916.501
916.501
916.501
916.501
916.502
916.502
916.502
916.502
916.502
916.502
916.503
916.503
916.503
916.503
916.503
916.504
916.504
916.504
916.504
916.504
916.505
916.505
916.505
916.505
916.505
916.505
916.506
916.506
916.506
916.506
916.506
916.506
916.507
916.507
916.507
916.507
916.507
916.507
916.507
916.508
916.508
916.508
916.508
916.508
916.508
916.508
916.509
916.509
916.509
916.509
916.509
916.509
916.509
916.51
916.51
916.51
916.51
916.51
916.51
916.51
916.51
916.51
916.511
916.511
916.511
916.511
916.511
916.511
916.511
916.511
916.511
916.511
916.511
916.512
916.512
916.512
916.512
916.512
916.512
916.512
916.512
916.512
916.512
916.512
916.512
916.512
916.513
916.513
916.513
916.513
916.513
916.513
916.513
916.513
916.513
916.513
916.513
916.513
916.513
916.513
916.513
916.513
916.513
916.514
916.514
916.514
916.514
916.514
916.514
916.514
916.514
916.514
916.514
916.514
916.514
916.514
916.514
916.514
916.514
916.514
916.514
916.514
916.514
916.514
916.514
916.514
916.514
916.514
916.514
916.515
916.515
916.515
916.515
916.515
916.515
916.515
916.515
916.515
916.515
916.515
916.515
916.515
916.515
916.515
916.515
916.515
916.515
916.515
916.515
916.515
916.515
916.515
916.515
916.515
916.515
916.515
916.515
916.515
916.515
916.515
916.515
916.515
916.515
916.515
916.515
916.515
916.515
916.516
916.516
916.516
916.516
916.516
916.516
916.516
916.516
916.516
916.516
916.516
916.516
916.516
916.516
916.516
916.516
916.516
916.516
916.516
916.516
916.516
916.516
916.516
916.516
916.516
916.516
916.516
916.516
916.516
916.516
916.516
916.516
916.516
916.516
916.516
916.516
916.516
916.516
916.516
916.517
916.517
916.517
916.517
916.517
916.517
916.517
916.517
916.517
916.517
916.517
916.517
916.517
916.517
916.517
916.517
916.517
916.517
916.517
916.517
916.517
916.517
916.517
916.517
916.517
916.517
916.517
916.517
916.517
916.517
916.517
916.517
916.517
916.517
916.518
916.518
916.518
916.518
916.518
916.518
916.518
916.518
916.518
916.518
916.518
916.518
916.518
916.518
916.518
916.518
916.518
916.518
916.518
916.518
916.518
916.518
916.518
916.518
916.518
916.518
916.518
916.518
916.518
916.518
916.518
916.518
916.518
916.518
916.518
916.518
916.518
916.518
916.518
916.518
916.518
916.518
916.518
916.518
916.518
916.518
916.518
916.518
916.518
916.518
916.518
916.518
916.518
916.518
916.518
916.518
916.518
916.518
916.518
916.518
916.518
916.518
916.518
916.518
916.518
916.518
916.518
916.518
916.518
916.518
916.518
916.518
916.518
916.518
916.518
916.518
916.518
916.518
916.518
916.518
916.518
916.518
916.518
916.518
916.518
916.518
916.518
916.518
916.518
916.518
916.518
916.518
916.518
916.518
916.518
916.518
916.518
916.518
916.518
916.518
916.518
916.519
916.519
916.519
916.519
916.519
916.519
916.519
916.519
916.519
916.519
916.519
916.519
916.519
916.519
916.519
916.519
916.519
916.519
916.519
916.519
916.519
916.519
916.519
916.519
916.519
916.519
916.519
916.519
916.519
916.519
916.519
916.519
916.519
916.519
916.519
916.519
916.519
916.519
916.519
916.519
916.519
916.518
916.518
916.518
916.518
916.518
916.518
916.518
916.517
916.517
916.517
916.517
916.516
916.516
916.516
916.515
916.515
916.515
916.514
916.514
916.513
916.513
916.512
916.511
916.511
916.51
916.509
916.508
916.507
916.506
916.505
916.504
916.503
916.501
916.5
916.499
916.497
916.495
916.493
916.491
916.489
916.487
916.484
916.482
916.479
916.476
916.472
916.469
916.465
916.461
916.457
916.452
916.448
916.442
916.437
916.431
916.425
916.418
916.411
916.403
916.395
916.387
916.378
916.368
916.358
916.347
916.335
916.322
916.309
916.295
916.28
916.264
916.247
916.23
916.211
916.19
916.169
916.147
916.123
916.097
916.071
916.042
916.012
915.98
915.947
915.911
915.874
915.834
915.792
915.748
915.701
915.652
915.6
915.546
915.488
915.427
915.363
915.296
915.225
915.151
915.072
914.99
914.903
914.812
914.716
914.616
914.511
914.4
914.284
914.163
914.035
913.902
913.762
913.616
913.463
913.302
913.135
912.959
912.776
912.585
912.385
912.176
911.958
911.731
911.493
911.246
910.988
910.72
910.44
910.149
909.846
909.53
909.202
908.86
908.506
908.137
907.754
907.356
906.943
906.514
906.069
905.608
905.13
904.634
904.12
903.588
903.037
902.467
901.876
901.265
900.633
899.98
899.305
898.607
897.885
897.14
896.371
895.577
894.758
893.913
893.04
892.141
891.214
890.258
889.274
888.259
887.214
886.138
885.03
883.89
882.716
881.509
880.266
878.989
877.675
876.324
874.935
873.508
872.041
870.534
868.986
867.395
865.762
864.084
862.362
860.593
858.777
856.913
855
853.036
851.02
848.952
846.829
844.651
842.415
840.122
837.768
835.353
832.875
830.332
827.723
825.045
822.298
819.478
816.584
813.614
810.566
807.437
804.224
800.926
797.54
794.062
790.491
786.823
783.056
779.185
775.207
771.12
766.92
762.602
758.163
753.598
748.904
744.076
739.11
734
728.742
723.331
717.762
712.034
706.186
700.109
693.851
687.406
680.765
673.925
666.876
659.614
652.132
644.422
636.478
628.294
619.863
611.178
602.234
593.025
583.545
573.79
563.756
553.439
542.837
531.949
520.776
509.319
497.583
485.572
473.295
460.764
447.992
434.995
421.795
408.415
394.886
381.24
367.517
353.76
340.019
326.352
312.821
299.499
)
;

boundaryField
{
    fixedWall
    {
        type            fixedValue;
        value           uniform 293;
    }
    outlet
    {
        type            inletOutlet;
        inletValue      uniform 293;
        value           uniform 293;
    }
    defaultFaces
    {
        type            empty;
    }
}


// ************************************************************************* //
