/*--------------------------------*- C++ -*----------------------------------*\
| =========                 |                                                 |
| \\      /  F ield         | OpenFOAM: The Open Source CFD Toolbox           |
|  \\    /   O peration     | Version:  2406                                  |
|   \\  /    A nd           | Website:  www.openfoam.com                      |
|    \\/     M anipulation  |                                                 |
\*---------------------------------------------------------------------------*/
FoamFile
{
    version     2.0;
    format      ascii;
    arch        "LSB;label=32;scalar=64";
    class       volVectorField;
    location    "13";
    object      U;
}
// * * * * * * * * * * * * * * * * * * * * * * * * * * * * * * * * * * * * * //

dimensions      [0 1 -1 0 0 0 0];

internalField   nonuniform List<vector> 
1000
(
(-6.50239e-07 0 0)
(-3.13257e-06 0 0)
(-8.09922e-06 0 0)
(-1.50005e-05 0 0)
(-2.34191e-05 0 0)
(-3.30997e-05 0 0)
(-4.38621e-05 0 0)
(-5.55573e-05 0 0)
(-6.80579e-05 0 0)
(-8.12578e-05 0 0)
(-9.50663e-05 0 0)
(-0.000109406 0 0)
(-0.00012421 0 0)
(-0.000139419 0 0)
(-0.000154984 0 0)
(-0.000170858 0 0)
(-0.000187002 0 0)
(-0.000203379 0 0)
(-0.000219958 0 0)
(-0.000236709 0 0)
(-0.000253607 0 0)
(-0.000270627 0 0)
(-0.000287748 0 0)
(-0.00030495 0 0)
(-0.000322214 0 0)
(-0.000339524 0 0)
(-0.000356865 0 0)
(-0.000374221 0 0)
(-0.000391581 0 0)
(-0.00040893 0 0)
(-0.000426259 0 0)
(-0.000443555 0 0)
(-0.00046081 0 0)
(-0.000478013 0 0)
(-0.000495156 0 0)
(-0.000512231 0 0)
(-0.000529229 0 0)
(-0.000546145 0 0)
(-0.000562971 0 0)
(-0.0005797 0 0)
(-0.000596327 0 0)
(-0.000612846 0 0)
(-0.000629252 0 0)
(-0.000645538 0 0)
(-0.000661703 0 0)
(-0.00067774 0 0)
(-0.000693645 0 0)
(-0.000709416 0 0)
(-0.000725048 0 0)
(-0.000740537 0 0)
(-0.000755882 0 0)
(-0.000771077 0 0)
(-0.000786122 0 0)
(-0.000801013 0 0)
(-0.000815748 0 0)
(-0.000830325 0 0)
(-0.000844742 0 0)
(-0.000858997 0 0)
(-0.000873088 0 0)
(-0.000887013 0 0)
(-0.000900772 0 0)
(-0.000914363 0 0)
(-0.000927785 0 0)
(-0.000941036 0 0)
(-0.000954117 0 0)
(-0.000967025 0 0)
(-0.000979762 0 0)
(-0.000992324 0 0)
(-0.00100471 0 0)
(-0.00101693 0 0)
(-0.00102897 0 0)
(-0.00104084 0 0)
(-0.00105253 0 0)
(-0.00106405 0 0)
(-0.0010754 0 0)
(-0.00108657 0 0)
(-0.00109757 0 0)
(-0.0011084 0 0)
(-0.00111905 0 0)
(-0.00112953 0 0)
(-0.00113984 0 0)
(-0.00114998 0 0)
(-0.00115995 0 0)
(-0.00116975 0 0)
(-0.00117939 0 0)
(-0.00118885 0 0)
(-0.00119815 0 0)
(-0.00120729 0 0)
(-0.00121626 0 0)
(-0.00122507 0 0)
(-0.00123371 0 0)
(-0.0012422 0 0)
(-0.00125052 0 0)
(-0.00125869 0 0)
(-0.00126671 0 0)
(-0.00127456 0 0)
(-0.00128227 0 0)
(-0.00128982 0 0)
(-0.00129722 0 0)
(-0.00130447 0 0)
(-0.00131158 0 0)
(-0.00131854 0 0)
(-0.00132535 0 0)
(-0.00133202 0 0)
(-0.00133856 0 0)
(-0.00134495 0 0)
(-0.0013512 0 0)
(-0.00135732 0 0)
(-0.00136331 0 0)
(-0.00136916 0 0)
(-0.00137488 0 0)
(-0.00138048 0 0)
(-0.00138594 0 0)
(-0.00139128 0 0)
(-0.0013965 0 0)
(-0.0014016 0 0)
(-0.00140658 0 0)
(-0.00141144 0 0)
(-0.00141618 0 0)
(-0.00142081 0 0)
(-0.00142533 0 0)
(-0.00142974 0 0)
(-0.00143404 0 0)
(-0.00143823 0 0)
(-0.00144232 0 0)
(-0.0014463 0 0)
(-0.00145018 0 0)
(-0.00145397 0 0)
(-0.00145765 0 0)
(-0.00146124 0 0)
(-0.00146474 0 0)
(-0.00146815 0 0)
(-0.00147146 0 0)
(-0.00147468 0 0)
(-0.00147782 0 0)
(-0.00148087 0 0)
(-0.00148384 0 0)
(-0.00148673 0 0)
(-0.00148954 0 0)
(-0.00149226 0 0)
(-0.00149492 0 0)
(-0.00149749 0 0)
(-0.0015 0 0)
(-0.00150243 0 0)
(-0.00150479 0 0)
(-0.00150708 0 0)
(-0.0015093 0 0)
(-0.00151146 0 0)
(-0.00151356 0 0)
(-0.00151559 0 0)
(-0.00151756 0 0)
(-0.00151947 0 0)
(-0.00152132 0 0)
(-0.00152312 0 0)
(-0.00152486 0 0)
(-0.00152654 0 0)
(-0.00152818 0 0)
(-0.00152976 0 0)
(-0.00153129 0 0)
(-0.00153277 0 0)
(-0.00153421 0 0)
(-0.0015356 0 0)
(-0.00153694 0 0)
(-0.00153824 0 0)
(-0.0015395 0 0)
(-0.00154071 0 0)
(-0.00154189 0 0)
(-0.00154302 0 0)
(-0.00154412 0 0)
(-0.00154518 0 0)
(-0.0015462 0 0)
(-0.00154719 0 0)
(-0.00154814 0 0)
(-0.00154906 0 0)
(-0.00154995 0 0)
(-0.00155081 0 0)
(-0.00155164 0 0)
(-0.00155244 0 0)
(-0.00155321 0 0)
(-0.00155396 0 0)
(-0.00155467 0 0)
(-0.00155535 0 0)
(-0.00155601 0 0)
(-0.00155664 0 0)
(-0.00155726 0 0)
(-0.00155785 0 0)
(-0.00155843 0 0)
(-0.00155898 0 0)
(-0.00155951 0 0)
(-0.00156002 0 0)
(-0.00156052 0 0)
(-0.00156099 0 0)
(-0.00156144 0 0)
(-0.00156188 0 0)
(-0.0015623 0 0)
(-0.0015627 0 0)
(-0.00156309 0 0)
(-0.00156346 0 0)
(-0.00156381 0 0)
(-0.00156415 0 0)
(-0.00156448 0 0)
(-0.0015648 0 0)
(-0.0015651 0 0)
(-0.00156539 0 0)
(-0.00156567 0 0)
(-0.00156593 0 0)
(-0.00156619 0 0)
(-0.00156644 0 0)
(-0.00156667 0 0)
(-0.0015669 0 0)
(-0.00156711 0 0)
(-0.00156732 0 0)
(-0.00156752 0 0)
(-0.00156771 0 0)
(-0.00156789 0 0)
(-0.00156806 0 0)
(-0.00156823 0 0)
(-0.00156838 0 0)
(-0.00156854 0 0)
(-0.00156868 0 0)
(-0.00156882 0 0)
(-0.00156895 0 0)
(-0.00156908 0 0)
(-0.0015692 0 0)
(-0.00156931 0 0)
(-0.00156942 0 0)
(-0.00156953 0 0)
(-0.00156963 0 0)
(-0.00156972 0 0)
(-0.00156981 0 0)
(-0.0015699 0 0)
(-0.00156998 0 0)
(-0.00157006 0 0)
(-0.00157013 0 0)
(-0.00157021 0 0)
(-0.00157027 0 0)
(-0.00157034 0 0)
(-0.0015704 0 0)
(-0.00157046 0 0)
(-0.00157051 0 0)
(-0.00157057 0 0)
(-0.00157062 0 0)
(-0.00157066 0 0)
(-0.00157071 0 0)
(-0.00157075 0 0)
(-0.00157079 0 0)
(-0.00157083 0 0)
(-0.00157087 0 0)
(-0.0015709 0 0)
(-0.00157093 0 0)
(-0.00157096 0 0)
(-0.00157099 0 0)
(-0.00157102 0 0)
(-0.00157105 0 0)
(-0.00157107 0 0)
(-0.00157109 0 0)
(-0.00157112 0 0)
(-0.00157114 0 0)
(-0.00157116 0 0)
(-0.00157118 0 0)
(-0.00157119 0 0)
(-0.00157121 0 0)
(-0.00157122 0 0)
(-0.00157124 0 0)
(-0.00157125 0 0)
(-0.00157127 0 0)
(-0.00157128 0 0)
(-0.00157129 0 0)
(-0.0015713 0 0)
(-0.00157131 0 0)
(-0.00157132 0 0)
(-0.00157133 0 0)
(-0.00157133 0 0)
(-0.00157134 0 0)
(-0.00157135 0 0)
(-0.00157136 0 0)
(-0.00157136 0 0)
(-0.00157137 0 0)
(-0.00157137 0 0)
(-0.00157138 0 0)
(-0.00157138 0 0)
(-0.00157138 0 0)
(-0.00157139 0 0)
(-0.00157139 0 0)
(-0.00157139 0 0)
(-0.0015714 0 0)
(-0.0015714 0 0)
(-0.0015714 0 0)
(-0.0015714 0 0)
(-0.0015714 0 0)
(-0.00157141 0 0)
(-0.00157141 0 0)
(-0.00157141 0 0)
(-0.00157141 0 0)
(-0.00157141 0 0)
(-0.00157141 0 0)
(-0.00157141 0 0)
(-0.00157141 0 0)
(-0.00157141 0 0)
(-0.00157141 0 0)
(-0.00157141 0 0)
(-0.00157141 0 0)
(-0.00157141 0 0)
(-0.00157141 0 0)
(-0.00157141 0 0)
(-0.00157141 0 0)
(-0.00157141 0 0)
(-0.00157141 0 0)
(-0.00157141 0 0)
(-0.00157141 0 0)
(-0.00157141 0 0)
(-0.00157141 0 0)
(-0.00157141 0 0)
(-0.00157141 0 0)
(-0.00157141 0 0)
(-0.00157141 0 0)
(-0.0015714 0 0)
(-0.00157141 0 0)
(-0.0015714 0 0)
(-0.0015714 0 0)
(-0.0015714 0 0)
(-0.0015714 0 0)
(-0.0015714 0 0)
(-0.0015714 0 0)
(-0.0015714 0 0)
(-0.0015714 0 0)
(-0.0015714 0 0)
(-0.0015714 0 0)
(-0.0015714 0 0)
(-0.0015714 0 0)
(-0.0015714 0 0)
(-0.0015714 0 0)
(-0.00157139 0 0)
(-0.0015714 0 0)
(-0.00157139 0 0)
(-0.00157139 0 0)
(-0.00157139 0 0)
(-0.00157139 0 0)
(-0.00157139 0 0)
(-0.00157139 0 0)
(-0.00157139 0 0)
(-0.00157139 0 0)
(-0.00157139 0 0)
(-0.00157139 0 0)
(-0.00157139 0 0)
(-0.00157139 0 0)
(-0.00157139 0 0)
(-0.00157139 0 0)
(-0.00157139 0 0)
(-0.00157139 0 0)
(-0.00157139 0 0)
(-0.00157139 0 0)
(-0.00157138 0 0)
(-0.00157139 0 0)
(-0.00157138 0 0)
(-0.00157139 0 0)
(-0.00157138 0 0)
(-0.00157139 0 0)
(-0.00157138 0 0)
(-0.00157138 0 0)
(-0.00157138 0 0)
(-0.00157138 0 0)
(-0.00157138 0 0)
(-0.00157138 0 0)
(-0.00157138 0 0)
(-0.00157138 0 0)
(-0.00157138 0 0)
(-0.00157138 0 0)
(-0.00157139 0 0)
(-0.00157139 0 0)
(-0.00157138 0 0)
(-0.00157139 0 0)
(-0.00157138 0 0)
(-0.00157138 0 0)
(-0.00157139 0 0)
(-0.00157139 0 0)
(-0.00157139 0 0)
(-0.00157139 0 0)
(-0.00157139 0 0)
(-0.00157139 0 0)
(-0.00157139 0 0)
(-0.00157139 0 0)
(-0.00157139 0 0)
(-0.00157139 0 0)
(-0.00157139 0 0)
(-0.00157139 0 0)
(-0.00157139 0 0)
(-0.00157139 0 0)
(-0.00157139 0 0)
(-0.00157139 0 0)
(-0.00157139 0 0)
(-0.00157139 0 0)
(-0.00157139 0 0)
(-0.00157139 0 0)
(-0.00157139 0 0)
(-0.00157139 0 0)
(-0.00157139 0 0)
(-0.00157139 0 0)
(-0.00157139 0 0)
(-0.00157139 0 0)
(-0.00157139 0 0)
(-0.00157139 0 0)
(-0.00157139 0 0)
(-0.0015714 0 0)
(-0.0015714 0 0)
(-0.0015714 0 0)
(-0.0015714 0 0)
(-0.0015714 0 0)
(-0.0015714 0 0)
(-0.0015714 0 0)
(-0.0015714 0 0)
(-0.0015714 0 0)
(-0.0015714 0 0)
(-0.0015714 0 0)
(-0.0015714 0 0)
(-0.0015714 0 0)
(-0.0015714 0 0)
(-0.0015714 0 0)
(-0.0015714 0 0)
(-0.0015714 0 0)
(-0.0015714 0 0)
(-0.0015714 0 0)
(-0.0015714 0 0)
(-0.0015714 0 0)
(-0.0015714 0 0)
(-0.0015714 0 0)
(-0.0015714 0 0)
(-0.0015714 0 0)
(-0.0015714 0 0)
(-0.0015714 0 0)
(-0.0015714 0 0)
(-0.0015714 0 0)
(-0.0015714 0 0)
(-0.0015714 0 0)
(-0.0015714 0 0)
(-0.0015714 0 0)
(-0.0015714 0 0)
(-0.0015714 0 0)
(-0.0015714 0 0)
(-0.0015714 0 0)
(-0.0015714 0 0)
(-0.0015714 0 0)
(-0.00157141 0 0)
(-0.0015714 0 0)
(-0.00157141 0 0)
(-0.00157141 0 0)
(-0.00157141 0 0)
(-0.00157141 0 0)
(-0.00157141 0 0)
(-0.00157141 0 0)
(-0.00157141 0 0)
(-0.00157141 0 0)
(-0.00157141 0 0)
(-0.00157141 0 0)
(-0.00157141 0 0)
(-0.00157141 0 0)
(-0.00157141 0 0)
(-0.00157141 0 0)
(-0.00157141 0 0)
(-0.00157141 0 0)
(-0.00157141 0 0)
(-0.00157141 0 0)
(-0.00157141 0 0)
(-0.00157141 0 0)
(-0.00157141 0 0)
(-0.00157141 0 0)
(-0.00157141 0 0)
(-0.00157141 0 0)
(-0.00157141 0 0)
(-0.00157141 0 0)
(-0.00157141 0 0)
(-0.00157141 0 0)
(-0.00157141 0 0)
(-0.00157141 0 0)
(-0.00157141 0 0)
(-0.00157141 0 0)
(-0.00157141 0 0)
(-0.00157141 0 0)
(-0.00157141 0 0)
(-0.00157141 0 0)
(-0.00157141 0 0)
(-0.00157141 0 0)
(-0.00157141 0 0)
(-0.00157141 0 0)
(-0.00157141 0 0)
(-0.00157141 0 0)
(-0.00157141 0 0)
(-0.00157141 0 0)
(-0.00157141 0 0)
(-0.00157141 0 0)
(-0.00157141 0 0)
(-0.00157141 0 0)
(-0.00157141 0 0)
(-0.00157141 0 0)
(-0.00157141 0 0)
(-0.00157141 0 0)
(-0.00157141 0 0)
(-0.00157141 0 0)
(-0.00157141 0 0)
(-0.00157141 0 0)
(-0.00157141 0 0)
(-0.00157141 0 0)
(-0.00157141 0 0)
(-0.00157141 0 0)
(-0.00157141 0 0)
(-0.00157141 0 0)
(-0.00157141 0 0)
(-0.00157141 0 0)
(-0.00157141 0 0)
(-0.00157141 0 0)
(-0.00157141 0 0)
(-0.00157141 0 0)
(-0.00157141 0 0)
(-0.00157141 0 0)
(-0.00157141 0 0)
(-0.00157141 0 0)
(-0.00157141 0 0)
(-0.00157141 0 0)
(-0.00157141 0 0)
(-0.00157141 0 0)
(-0.00157141 0 0)
(-0.00157141 0 0)
(-0.00157141 0 0)
(-0.00157141 0 0)
(-0.00157141 0 0)
(-0.00157141 0 0)
(-0.00157141 0 0)
(-0.00157141 0 0)
(-0.00157141 0 0)
(-0.00157141 0 0)
(-0.00157141 0 0)
(-0.0015714 0 0)
(-0.00157141 0 0)
(-0.00157141 0 0)
(-0.0015714 0 0)
(-0.00157141 0 0)
(-0.0015714 0 0)
(-0.00157141 0 0)
(-0.0015714 0 0)
(-0.0015714 0 0)
(-0.0015714 0 0)
(-0.0015714 0 0)
(-0.00157141 0 0)
(-0.0015714 0 0)
(-0.0015714 0 0)
(-0.0015714 0 0)
(-0.0015714 0 0)
(-0.00157141 0 0)
(-0.0015714 0 0)
(-0.0015714 0 0)
(-0.0015714 0 0)
(-0.0015714 0 0)
(-0.0015714 0 0)
(-0.0015714 0 0)
(-0.0015714 0 0)
(-0.0015714 0 0)
(-0.0015714 0 0)
(-0.0015714 0 0)
(-0.0015714 0 0)
(-0.0015714 0 0)
(-0.0015714 0 0)
(-0.0015714 0 0)
(-0.0015714 0 0)
(-0.0015714 0 0)
(-0.0015714 0 0)
(-0.0015714 0 0)
(-0.0015714 0 0)
(-0.0015714 0 0)
(-0.0015714 0 0)
(-0.0015714 0 0)
(-0.0015714 0 0)
(-0.0015714 0 0)
(-0.0015714 0 0)
(-0.0015714 0 0)
(-0.0015714 0 0)
(-0.0015714 0 0)
(-0.0015714 0 0)
(-0.0015714 0 0)
(-0.0015714 0 0)
(-0.0015714 0 0)
(-0.0015714 0 0)
(-0.0015714 0 0)
(-0.0015714 0 0)
(-0.0015714 0 0)
(-0.0015714 0 0)
(-0.0015714 0 0)
(-0.0015714 0 0)
(-0.0015714 0 0)
(-0.0015714 0 0)
(-0.0015714 0 0)
(-0.0015714 0 0)
(-0.0015714 0 0)
(-0.0015714 0 0)
(-0.0015714 0 0)
(-0.0015714 0 0)
(-0.0015714 0 0)
(-0.0015714 0 0)
(-0.0015714 0 0)
(-0.0015714 0 0)
(-0.0015714 0 0)
(-0.0015714 0 0)
(-0.0015714 0 0)
(-0.0015714 0 0)
(-0.0015714 0 0)
(-0.0015714 0 0)
(-0.0015714 0 0)
(-0.0015714 0 0)
(-0.0015714 0 0)
(-0.0015714 0 0)
(-0.0015714 0 0)
(-0.0015714 0 0)
(-0.0015714 0 0)
(-0.0015714 0 0)
(-0.0015714 0 0)
(-0.0015714 0 0)
(-0.0015714 0 0)
(-0.0015714 0 0)
(-0.0015714 0 0)
(-0.0015714 0 0)
(-0.0015714 0 0)
(-0.0015714 0 0)
(-0.0015714 0 0)
(-0.0015714 0 0)
(-0.0015714 0 0)
(-0.0015714 0 0)
(-0.0015714 0 0)
(-0.0015714 0 0)
(-0.0015714 0 0)
(-0.0015714 0 0)
(-0.0015714 0 0)
(-0.0015714 0 0)
(-0.0015714 0 0)
(-0.0015714 0 0)
(-0.0015714 0 0)
(-0.0015714 0 0)
(-0.0015714 0 0)
(-0.0015714 0 0)
(-0.0015714 0 0)
(-0.0015714 0 0)
(-0.0015714 0 0)
(-0.0015714 0 0)
(-0.0015714 0 0)
(-0.0015714 0 0)
(-0.0015714 0 0)
(-0.0015714 0 0)
(-0.0015714 0 0)
(-0.0015714 0 0)
(-0.0015714 0 0)
(-0.0015714 0 0)
(-0.0015714 0 0)
(-0.0015714 0 0)
(-0.0015714 0 0)
(-0.0015714 0 0)
(-0.0015714 0 0)
(-0.0015714 0 0)
(-0.0015714 0 0)
(-0.0015714 0 0)
(-0.0015714 0 0)
(-0.0015714 0 0)
(-0.0015714 0 0)
(-0.0015714 0 0)
(-0.00157139 0 0)
(-0.0015714 0 0)
(-0.0015714 0 0)
(-0.00157139 0 0)
(-0.0015714 0 0)
(-0.00157139 0 0)
(-0.0015714 0 0)
(-0.00157139 0 0)
(-0.0015714 0 0)
(-0.00157139 0 0)
(-0.00157139 0 0)
(-0.00157139 0 0)
(-0.00157139 0 0)
(-0.00157139 0 0)
(-0.00157139 0 0)
(-0.00157139 0 0)
(-0.00157139 0 0)
(-0.00157139 0 0)
(-0.00157139 0 0)
(-0.00157139 0 0)
(-0.00157139 0 0)
(-0.00157139 0 0)
(-0.00157139 0 0)
(-0.00157139 0 0)
(-0.00157139 0 0)
(-0.00157139 0 0)
(-0.00157139 0 0)
(-0.00157139 0 0)
(-0.00157139 0 0)
(-0.00157139 0 0)
(-0.00157139 0 0)
(-0.00157139 0 0)
(-0.00157139 0 0)
(-0.00157139 0 0)
(-0.00157139 0 0)
(-0.00157139 0 0)
(-0.00157139 0 0)
(-0.00157139 0 0)
(-0.00157139 0 0)
(-0.00157139 0 0)
(-0.00157139 0 0)
(-0.00157139 0 0)
(-0.00157139 0 0)
(-0.00157139 0 0)
(-0.00157139 0 0)
(-0.00157139 0 0)
(-0.00157139 0 0)
(-0.00157139 0 0)
(-0.00157139 0 0)
(-0.00157139 0 0)
(-0.00157139 0 0)
(-0.00157139 0 0)
(-0.00157139 0 0)
(-0.00157139 0 0)
(-0.00157139 0 0)
(-0.00157139 0 0)
(-0.00157139 0 0)
(-0.00157139 0 0)
(-0.00157139 0 0)
(-0.00157139 0 0)
(-0.0015714 0 0)
(-0.0015714 0 0)
(-0.0015714 0 0)
(-0.0015714 0 0)
(-0.0015714 0 0)
(-0.0015714 0 0)
(-0.0015714 0 0)
(-0.00157141 0 0)
(-0.00157141 0 0)
(-0.00157141 0 0)
(-0.00157141 0 0)
(-0.00157141 0 0)
(-0.00157142 0 0)
(-0.00157142 0 0)
(-0.00157142 0 0)
(-0.00157143 0 0)
(-0.00157143 0 0)
(-0.00157144 0 0)
(-0.00157144 0 0)
(-0.00157144 0 0)
(-0.00157145 0 0)
(-0.00157145 0 0)
(-0.00157146 0 0)
(-0.00157147 0 0)
(-0.00157147 0 0)
(-0.00157148 0 0)
(-0.00157149 0 0)
(-0.00157149 0 0)
(-0.0015715 0 0)
(-0.00157151 0 0)
(-0.00157152 0 0)
(-0.00157153 0 0)
(-0.00157154 0 0)
(-0.00157156 0 0)
(-0.00157157 0 0)
(-0.00157158 0 0)
(-0.0015716 0 0)
(-0.00157161 0 0)
(-0.00157163 0 0)
(-0.00157165 0 0)
(-0.00157167 0 0)
(-0.00157169 0 0)
(-0.00157171 0 0)
(-0.00157174 0 0)
(-0.00157176 0 0)
(-0.00157179 0 0)
(-0.00157182 0 0)
(-0.00157185 0 0)
(-0.00157188 0 0)
(-0.00157192 0 0)
(-0.00157196 0 0)
(-0.001572 0 0)
(-0.00157204 0 0)
(-0.00157209 0 0)
(-0.00157214 0 0)
(-0.00157219 0 0)
(-0.00157225 0 0)
(-0.00157231 0 0)
(-0.00157237 0 0)
(-0.00157244 0 0)
(-0.00157251 0 0)
(-0.00157259 0 0)
(-0.00157267 0 0)
(-0.00157276 0 0)
(-0.00157285 0 0)
(-0.00157295 0 0)
(-0.00157305 0 0)
(-0.00157316 0 0)
(-0.00157328 0 0)
(-0.00157341 0 0)
(-0.00157354 0 0)
(-0.00157368 0 0)
(-0.00157383 0 0)
(-0.00157399 0 0)
(-0.00157416 0 0)
(-0.00157434 0 0)
(-0.00157453 0 0)
(-0.00157473 0 0)
(-0.00157495 0 0)
(-0.00157517 0 0)
(-0.00157541 0 0)
(-0.00157567 0 0)
(-0.00157593 0 0)
(-0.00157622 0 0)
(-0.00157652 0 0)
(-0.00157683 0 0)
(-0.00157717 0 0)
(-0.00157752 0 0)
(-0.00157789 0 0)
(-0.00157829 0 0)
(-0.0015787 0 0)
(-0.00157914 0 0)
(-0.0015796 0 0)
(-0.00158009 0 0)
(-0.0015806 0 0)
(-0.00158114 0 0)
(-0.0015817 0 0)
(-0.0015823 0 0)
(-0.00158293 0 0)
(-0.00158359 0 0)
(-0.00158428 0 0)
(-0.00158501 0 0)
(-0.00158578 0 0)
(-0.00158659 0 0)
(-0.00158743 0 0)
(-0.00158832 0 0)
(-0.00158925 0 0)
(-0.00159022 0 0)
(-0.00159125 0 0)
(-0.00159232 0 0)
(-0.00159344 0 0)
(-0.00159462 0 0)
(-0.00159585 0 0)
(-0.00159714 0 0)
(-0.00159848 0 0)
(-0.00159989 0 0)
(-0.00160136 0 0)
(-0.0016029 0 0)
(-0.00160451 0 0)
(-0.00160619 0 0)
(-0.00160794 0 0)
(-0.00160977 0 0)
(-0.00161167 0 0)
(-0.00161366 0 0)
(-0.00161573 0 0)
(-0.00161789 0 0)
(-0.00162014 0 0)
(-0.00162248 0 0)
(-0.00162492 0 0)
(-0.00162745 0 0)
(-0.00163009 0 0)
(-0.00163283 0 0)
(-0.00163568 0 0)
(-0.00163863 0 0)
(-0.00164171 0 0)
(-0.0016449 0 0)
(-0.0016482 0 0)
(-0.00165164 0 0)
(-0.0016552 0 0)
(-0.00165889 0 0)
(-0.00166271 0 0)
(-0.00166667 0 0)
(-0.00167076 0 0)
(-0.00167501 0 0)
(-0.00167939 0 0)
(-0.00168393 0 0)
(-0.00168862 0 0)
(-0.00169347 0 0)
(-0.00169848 0 0)
(-0.00170365 0 0)
(-0.00170899 0 0)
(-0.0017145 0 0)
(-0.00172018 0 0)
(-0.00172603 0 0)
(-0.00173207 0 0)
(-0.00173829 0 0)
(-0.00174469 0 0)
(-0.00175128 0 0)
(-0.00175806 0 0)
(-0.00176504 0 0)
(-0.00177221 0 0)
(-0.00177959 0 0)
(-0.00178716 0 0)
(-0.00179494 0 0)
(-0.00180292 0 0)
(-0.00181111 0 0)
(-0.00181952 0 0)
(-0.00182813 0 0)
(-0.00183696 0 0)
(-0.00184601 0 0)
(-0.00185527 0 0)
(-0.00186475 0 0)
(-0.00187446 0 0)
(-0.00188438 0 0)
(-0.00189452 0 0)
(-0.00190488 0 0)
(-0.00191547 0 0)
(-0.00192627 0 0)
(-0.0019373 0 0)
(-0.00194855 0 0)
(-0.00196002 0 0)
(-0.00197171 0 0)
(-0.00198361 0 0)
(-0.00199573 0 0)
(-0.00200807 0 0)
(-0.00202062 0 0)
(-0.00203337 0 0)
(-0.00204634 0 0)
(-0.0020595 0 0)
(-0.00207287 0 0)
(-0.00208643 0 0)
(-0.00210018 0 0)
(-0.00211412 0 0)
(-0.00212824 0 0)
(-0.00214254 0 0)
(-0.00215701 0 0)
(-0.00217164 0 0)
(-0.00218643 0 0)
(-0.00220136 0 0)
(-0.00221644 0 0)
(-0.00223166 0 0)
(-0.00224699 0 0)
(-0.00226244 0 0)
(-0.002278 0 0)
(-0.00229365 0 0)
(-0.00230939 0 0)
(-0.0023252 0 0)
(-0.00234107 0 0)
(-0.00235699 0 0)
(-0.00237294 0 0)
(-0.00238892 0 0)
(-0.0024049 0 0)
(-0.00242087 0 0)
(-0.00243682 0 0)
(-0.00245273 0 0)
(-0.00246858 0 0)
(-0.00248435 0 0)
(-0.00250003 0 0)
(-0.0025156 0 0)
(-0.00253103 0 0)
(-0.00254631 0 0)
(-0.00256141 0 0)
(-0.00257631 0 0)
(-0.00259099 0 0)
(-0.00260542 0 0)
(-0.00261958 0 0)
(-0.00263343 0 0)
(-0.00264696 0 0)
(-0.00266013 0 0)
(-0.00267291 0 0)
(-0.00268528 0 0)
(-0.00269718 0 0)
(-0.0027086 0 0)
(-0.00271949 0 0)
(-0.00272981 0 0)
(-0.00273953 0 0)
(-0.0027486 0 0)
(-0.00275696 0 0)
(-0.00276465 0 0)
(-0.00277159 0 0)
(-0.00277777 0 0)
(-0.00278319 0 0)
(-0.00278777 0 0)
(-0.00279143 0 0)
(-0.00279407 0 0)
(-0.00279558 0 0)
(-0.00279596 0 0)
(-0.00279514 0 0)
(-0.00279303 0 0)
(-0.00278961 0 0)
(-0.00278477 0 0)
(-0.00277846 0 0)
(-0.00277059 0 0)
(-0.0027611 0 0)
(-0.00274989 0 0)
(-0.00273687 0 0)
(-0.00272196 0 0)
(-0.00270506 0 0)
(-0.00268608 0 0)
(-0.00266491 0 0)
(-0.00264145 0 0)
(-0.0026156 0 0)
(-0.00258725 0 0)
(-0.0025563 0 0)
(-0.00252263 0 0)
(-0.00248616 0 0)
(-0.00244678 0 0)
(-0.00240439 0 0)
(-0.0023589 0 0)
(-0.00231025 0 0)
(-0.00225835 0 0)
(-0.00220315 0 0)
(-0.0021446 0 0)
(-0.00208279 0 0)
(-0.00201798 0 0)
(-0.00195019 0 0)
(-0.00187686 0 0)
(-0.00179231 0 0)
(-0.00170937 0 0)
)
;

boundaryField
{
    fixedWall
    {
        type            fixedValue;
        value           uniform (0 0 0);
    }
    outlet
    {
        type            pressureInletOutletVelocity;
        value           uniform (-0.00170937 0 0);
    }
    defaultFaces
    {
        type            empty;
    }
}


// ************************************************************************* //
