/*--------------------------------*- C++ -*----------------------------------*\
| =========                 |                                                 |
| \\      /  F ield         | OpenFOAM: The Open Source CFD Toolbox           |
|  \\    /   O peration     | Version:  2406                                  |
|   \\  /    A nd           | Website:  www.openfoam.com                      |
|    \\/     M anipulation  |                                                 |
\*---------------------------------------------------------------------------*/
FoamFile
{
    version     2.0;
    format      ascii;
    arch        "LSB;label=32;scalar=64";
    class       surfaceScalarField;
    location    "7.6";
    object      phi;
}
// * * * * * * * * * * * * * * * * * * * * * * * * * * * * * * * * * * * * * //

dimensions      [1 0 -1 0 0 0 0];

oriented        oriented;

internalField   nonuniform List<scalar> 
999
(
-2.79846e-08
-9.08104e-08
-1.73891e-07
-2.69044e-07
-3.71404e-07
-4.77939e-07
-5.86697e-07
-6.96387e-07
-8.06146e-07
-9.15375e-07
-1.02367e-06
-1.13074e-06
-1.2364e-06
-1.34052e-06
-1.443e-06
-1.5438e-06
-1.64287e-06
-1.74021e-06
-1.83581e-06
-1.92968e-06
-2.02182e-06
-2.11225e-06
-2.20099e-06
-2.28806e-06
-2.37349e-06
-2.4573e-06
-2.53951e-06
-2.62015e-06
-2.69925e-06
-2.77682e-06
-2.85289e-06
-2.92748e-06
-3.00062e-06
-3.07233e-06
-3.14264e-06
-3.21156e-06
-3.27911e-06
-3.34531e-06
-3.41019e-06
-3.47377e-06
-3.53606e-06
-3.59709e-06
-3.65687e-06
-3.71541e-06
-3.77274e-06
-3.82888e-06
-3.88384e-06
-3.93764e-06
-3.99029e-06
-4.04181e-06
-4.09221e-06
-4.14152e-06
-4.18974e-06
-4.2369e-06
-4.28301e-06
-4.32808e-06
-4.37212e-06
-4.41516e-06
-4.4572e-06
-4.49826e-06
-4.53836e-06
-4.57751e-06
-4.61572e-06
-4.653e-06
-4.68938e-06
-4.72487e-06
-4.75947e-06
-4.7932e-06
-4.82608e-06
-4.85812e-06
-4.88933e-06
-4.91974e-06
-4.94934e-06
-4.97815e-06
-5.00619e-06
-5.03348e-06
-5.06001e-06
-5.08581e-06
-5.1109e-06
-5.13527e-06
-5.15895e-06
-5.18196e-06
-5.20429e-06
-5.22597e-06
-5.24701e-06
-5.26742e-06
-5.28722e-06
-5.30641e-06
-5.32501e-06
-5.34303e-06
-5.36049e-06
-5.37739e-06
-5.39375e-06
-5.40959e-06
-5.4249e-06
-5.43971e-06
-5.45403e-06
-5.46787e-06
-5.48124e-06
-5.49416e-06
-5.50662e-06
-5.51865e-06
-5.53026e-06
-5.54146e-06
-5.55225e-06
-5.56266e-06
-5.57268e-06
-5.58233e-06
-5.59163e-06
-5.60058e-06
-5.60918e-06
-5.61746e-06
-5.62542e-06
-5.63307e-06
-5.64042e-06
-5.64748e-06
-5.65426e-06
-5.66076e-06
-5.667e-06
-5.67299e-06
-5.67872e-06
-5.68422e-06
-5.68949e-06
-5.69453e-06
-5.69935e-06
-5.70397e-06
-5.70838e-06
-5.7126e-06
-5.71663e-06
-5.72047e-06
-5.72414e-06
-5.72767e-06
-5.73103e-06
-5.73424e-06
-5.7373e-06
-5.74022e-06
-5.74299e-06
-5.74564e-06
-5.74816e-06
-5.75056e-06
-5.75284e-06
-5.75501e-06
-5.75708e-06
-5.75904e-06
-5.76091e-06
-5.76268e-06
-5.76436e-06
-5.76596e-06
-5.76748e-06
-5.76891e-06
-5.77028e-06
-5.77157e-06
-5.77279e-06
-5.77395e-06
-5.77505e-06
-5.77609e-06
-5.77707e-06
-5.778e-06
-5.77888e-06
-5.77971e-06
-5.78049e-06
-5.78124e-06
-5.78194e-06
-5.7826e-06
-5.78322e-06
-5.78381e-06
-5.78436e-06
-5.78488e-06
-5.78538e-06
-5.78584e-06
-5.78628e-06
-5.78669e-06
-5.78707e-06
-5.78744e-06
-5.78778e-06
-5.7881e-06
-5.78841e-06
-5.78869e-06
-5.78896e-06
-5.78921e-06
-5.78944e-06
-5.78966e-06
-5.78987e-06
-5.79007e-06
-5.79025e-06
-5.79042e-06
-5.79058e-06
-5.79073e-06
-5.79087e-06
-5.791e-06
-5.79113e-06
-5.79124e-06
-5.79135e-06
-5.79145e-06
-5.79155e-06
-5.79164e-06
-5.79172e-06
-5.7918e-06
-5.79187e-06
-5.79194e-06
-5.79201e-06
-5.79206e-06
-5.79212e-06
-5.79217e-06
-5.79222e-06
-5.79227e-06
-5.79231e-06
-5.79235e-06
-5.79239e-06
-5.79242e-06
-5.79246e-06
-5.79249e-06
-5.79251e-06
-5.79254e-06
-5.79256e-06
-5.79259e-06
-5.79261e-06
-5.79263e-06
-5.79265e-06
-5.79266e-06
-5.79268e-06
-5.79269e-06
-5.7927e-06
-5.79272e-06
-5.79273e-06
-5.79274e-06
-5.79275e-06
-5.79275e-06
-5.79276e-06
-5.79277e-06
-5.79278e-06
-5.79278e-06
-5.79278e-06
-5.79279e-06
-5.79279e-06
-5.7928e-06
-5.7928e-06
-5.7928e-06
-5.7928e-06
-5.7928e-06
-5.7928e-06
-5.7928e-06
-5.7928e-06
-5.7928e-06
-5.7928e-06
-5.7928e-06
-5.79279e-06
-5.79279e-06
-5.79279e-06
-5.79279e-06
-5.79278e-06
-5.79278e-06
-5.79277e-06
-5.79277e-06
-5.79276e-06
-5.79276e-06
-5.79275e-06
-5.79275e-06
-5.79274e-06
-5.79273e-06
-5.79273e-06
-5.79272e-06
-5.79271e-06
-5.79271e-06
-5.7927e-06
-5.79269e-06
-5.79268e-06
-5.79268e-06
-5.79267e-06
-5.79266e-06
-5.79265e-06
-5.79264e-06
-5.79263e-06
-5.79262e-06
-5.79261e-06
-5.7926e-06
-5.7926e-06
-5.79259e-06
-5.79258e-06
-5.79257e-06
-5.79256e-06
-5.79255e-06
-5.79254e-06
-5.79252e-06
-5.79251e-06
-5.7925e-06
-5.79249e-06
-5.79248e-06
-5.79247e-06
-5.79246e-06
-5.79245e-06
-5.79244e-06
-5.79243e-06
-5.79242e-06
-5.79241e-06
-5.7924e-06
-5.79239e-06
-5.79237e-06
-5.79236e-06
-5.79235e-06
-5.79234e-06
-5.79233e-06
-5.79232e-06
-5.79231e-06
-5.7923e-06
-5.79229e-06
-5.79228e-06
-5.79227e-06
-5.79225e-06
-5.79224e-06
-5.79223e-06
-5.79222e-06
-5.79221e-06
-5.7922e-06
-5.79219e-06
-5.79218e-06
-5.79217e-06
-5.79216e-06
-5.79215e-06
-5.79214e-06
-5.79213e-06
-5.79212e-06
-5.79212e-06
-5.79211e-06
-5.7921e-06
-5.79209e-06
-5.79208e-06
-5.79207e-06
-5.79206e-06
-5.79205e-06
-5.79205e-06
-5.79204e-06
-5.79203e-06
-5.79202e-06
-5.79202e-06
-5.79201e-06
-5.792e-06
-5.792e-06
-5.79199e-06
-5.79199e-06
-5.79198e-06
-5.79198e-06
-5.79197e-06
-5.79196e-06
-5.79196e-06
-5.79196e-06
-5.79195e-06
-5.79195e-06
-5.79194e-06
-5.79194e-06
-5.79194e-06
-5.79193e-06
-5.79193e-06
-5.79193e-06
-5.79193e-06
-5.79193e-06
-5.79193e-06
-5.79192e-06
-5.79192e-06
-5.79192e-06
-5.79192e-06
-5.79192e-06
-5.79192e-06
-5.79192e-06
-5.79192e-06
-5.79193e-06
-5.79193e-06
-5.79193e-06
-5.79193e-06
-5.79193e-06
-5.79193e-06
-5.79193e-06
-5.79194e-06
-5.79194e-06
-5.79194e-06
-5.79194e-06
-5.79195e-06
-5.79195e-06
-5.79195e-06
-5.79196e-06
-5.79196e-06
-5.79196e-06
-5.79197e-06
-5.79197e-06
-5.79197e-06
-5.79198e-06
-5.79198e-06
-5.79198e-06
-5.79199e-06
-5.79199e-06
-5.792e-06
-5.792e-06
-5.792e-06
-5.79201e-06
-5.79201e-06
-5.79201e-06
-5.79202e-06
-5.79202e-06
-5.79203e-06
-5.79203e-06
-5.79203e-06
-5.79203e-06
-5.79204e-06
-5.79204e-06
-5.79204e-06
-5.79205e-06
-5.79205e-06
-5.79205e-06
-5.79205e-06
-5.79205e-06
-5.79206e-06
-5.79206e-06
-5.79206e-06
-5.79206e-06
-5.79206e-06
-5.79206e-06
-5.79206e-06
-5.79206e-06
-5.79206e-06
-5.79206e-06
-5.79206e-06
-5.79206e-06
-5.79206e-06
-5.79206e-06
-5.79206e-06
-5.79206e-06
-5.79206e-06
-5.79206e-06
-5.79206e-06
-5.79206e-06
-5.79205e-06
-5.79205e-06
-5.79205e-06
-5.79205e-06
-5.79204e-06
-5.79204e-06
-5.79204e-06
-5.79204e-06
-5.79203e-06
-5.79203e-06
-5.79203e-06
-5.79202e-06
-5.79202e-06
-5.79202e-06
-5.79201e-06
-5.79201e-06
-5.79201e-06
-5.792e-06
-5.792e-06
-5.792e-06
-5.79199e-06
-5.79199e-06
-5.79199e-06
-5.79198e-06
-5.79198e-06
-5.79198e-06
-5.79198e-06
-5.79197e-06
-5.79197e-06
-5.79197e-06
-5.79196e-06
-5.79196e-06
-5.79196e-06
-5.79195e-06
-5.79195e-06
-5.79195e-06
-5.79195e-06
-5.79194e-06
-5.79194e-06
-5.79194e-06
-5.79194e-06
-5.79193e-06
-5.79193e-06
-5.79193e-06
-5.79192e-06
-5.79192e-06
-5.79192e-06
-5.79192e-06
-5.79192e-06
-5.79192e-06
-5.79192e-06
-5.79192e-06
-5.79191e-06
-5.79191e-06
-5.79191e-06
-5.79191e-06
-5.79191e-06
-5.79191e-06
-5.79191e-06
-5.79191e-06
-5.79191e-06
-5.79191e-06
-5.79191e-06
-5.79191e-06
-5.79191e-06
-5.79191e-06
-5.79191e-06
-5.79191e-06
-5.79191e-06
-5.79191e-06
-5.79191e-06
-5.79191e-06
-5.79191e-06
-5.79191e-06
-5.79191e-06
-5.79191e-06
-5.79191e-06
-5.79191e-06
-5.79191e-06
-5.79191e-06
-5.79191e-06
-5.79192e-06
-5.79192e-06
-5.79192e-06
-5.79192e-06
-5.79192e-06
-5.79192e-06
-5.79192e-06
-5.79192e-06
-5.79192e-06
-5.79192e-06
-5.79192e-06
-5.79192e-06
-5.79192e-06
-5.79193e-06
-5.79193e-06
-5.79193e-06
-5.79193e-06
-5.79193e-06
-5.79192e-06
-5.79193e-06
-5.79192e-06
-5.79192e-06
-5.79192e-06
-5.79192e-06
-5.79192e-06
-5.79192e-06
-5.79192e-06
-5.79192e-06
-5.79192e-06
-5.79192e-06
-5.79192e-06
-5.79191e-06
-5.79191e-06
-5.79191e-06
-5.79191e-06
-5.7919e-06
-5.7919e-06
-5.7919e-06
-5.7919e-06
-5.79189e-06
-5.79189e-06
-5.79189e-06
-5.79188e-06
-5.79188e-06
-5.79188e-06
-5.79187e-06
-5.79187e-06
-5.79186e-06
-5.79186e-06
-5.79185e-06
-5.79185e-06
-5.79184e-06
-5.79184e-06
-5.79183e-06
-5.79183e-06
-5.79182e-06
-5.79182e-06
-5.79181e-06
-5.7918e-06
-5.7918e-06
-5.79179e-06
-5.79179e-06
-5.79178e-06
-5.79177e-06
-5.79177e-06
-5.79176e-06
-5.79176e-06
-5.79175e-06
-5.79175e-06
-5.79174e-06
-5.79174e-06
-5.79173e-06
-5.79173e-06
-5.79172e-06
-5.79172e-06
-5.79171e-06
-5.79171e-06
-5.7917e-06
-5.7917e-06
-5.79169e-06
-5.79169e-06
-5.79169e-06
-5.79168e-06
-5.79168e-06
-5.79168e-06
-5.79167e-06
-5.79167e-06
-5.79167e-06
-5.79167e-06
-5.79166e-06
-5.79166e-06
-5.79166e-06
-5.79166e-06
-5.79166e-06
-5.79166e-06
-5.79166e-06
-5.79166e-06
-5.79166e-06
-5.79166e-06
-5.79166e-06
-5.79166e-06
-5.79166e-06
-5.79166e-06
-5.79166e-06
-5.79166e-06
-5.79166e-06
-5.79166e-06
-5.79166e-06
-5.79167e-06
-5.79167e-06
-5.79167e-06
-5.79167e-06
-5.79167e-06
-5.79168e-06
-5.79168e-06
-5.79168e-06
-5.79168e-06
-5.79168e-06
-5.79169e-06
-5.79169e-06
-5.79169e-06
-5.79169e-06
-5.79169e-06
-5.7917e-06
-5.7917e-06
-5.7917e-06
-5.7917e-06
-5.79171e-06
-5.79171e-06
-5.79171e-06
-5.79171e-06
-5.79172e-06
-5.79172e-06
-5.79172e-06
-5.79172e-06
-5.79172e-06
-5.79173e-06
-5.79173e-06
-5.79173e-06
-5.79173e-06
-5.79173e-06
-5.79173e-06
-5.79174e-06
-5.79174e-06
-5.79174e-06
-5.79174e-06
-5.79174e-06
-5.79174e-06
-5.79175e-06
-5.79175e-06
-5.79175e-06
-5.79175e-06
-5.79175e-06
-5.79175e-06
-5.79175e-06
-5.79175e-06
-5.79175e-06
-5.79175e-06
-5.79175e-06
-5.79175e-06
-5.79175e-06
-5.79175e-06
-5.79175e-06
-5.79175e-06
-5.79175e-06
-5.79175e-06
-5.79174e-06
-5.79174e-06
-5.79174e-06
-5.79173e-06
-5.79173e-06
-5.79173e-06
-5.79172e-06
-5.79172e-06
-5.79171e-06
-5.79171e-06
-5.7917e-06
-5.79169e-06
-5.79168e-06
-5.79168e-06
-5.79167e-06
-5.79166e-06
-5.79165e-06
-5.79164e-06
-5.79163e-06
-5.79162e-06
-5.79161e-06
-5.79159e-06
-5.79158e-06
-5.79157e-06
-5.79156e-06
-5.79154e-06
-5.79153e-06
-5.79152e-06
-5.7915e-06
-5.79149e-06
-5.79147e-06
-5.79146e-06
-5.79144e-06
-5.79143e-06
-5.79141e-06
-5.7914e-06
-5.79138e-06
-5.79136e-06
-5.79135e-06
-5.79133e-06
-5.79132e-06
-5.7913e-06
-5.79129e-06
-5.79127e-06
-5.79126e-06
-5.79124e-06
-5.79123e-06
-5.79122e-06
-5.7912e-06
-5.79119e-06
-5.79118e-06
-5.79117e-06
-5.79116e-06
-5.79115e-06
-5.79114e-06
-5.79113e-06
-5.79113e-06
-5.79112e-06
-5.79111e-06
-5.79111e-06
-5.79111e-06
-5.7911e-06
-5.7911e-06
-5.7911e-06
-5.7911e-06
-5.7911e-06
-5.79111e-06
-5.79111e-06
-5.79111e-06
-5.79112e-06
-5.79112e-06
-5.79113e-06
-5.79114e-06
-5.79115e-06
-5.79116e-06
-5.79117e-06
-5.79118e-06
-5.79119e-06
-5.7912e-06
-5.79121e-06
-5.79123e-06
-5.79124e-06
-5.79126e-06
-5.79127e-06
-5.79129e-06
-5.7913e-06
-5.79132e-06
-5.79134e-06
-5.79135e-06
-5.79137e-06
-5.79139e-06
-5.7914e-06
-5.79142e-06
-5.79144e-06
-5.79145e-06
-5.79147e-06
-5.79148e-06
-5.7915e-06
-5.79151e-06
-5.79153e-06
-5.79154e-06
-5.79156e-06
-5.79157e-06
-5.79158e-06
-5.79159e-06
-5.7916e-06
-5.79161e-06
-5.79162e-06
-5.79162e-06
-5.79163e-06
-5.79163e-06
-5.79164e-06
-5.79164e-06
-5.79164e-06
-5.79164e-06
-5.79164e-06
-5.79164e-06
-5.79164e-06
-5.79164e-06
-5.79163e-06
-5.79163e-06
-5.79162e-06
-5.79161e-06
-5.7916e-06
-5.79159e-06
-5.79158e-06
-5.79157e-06
-5.79156e-06
-5.79155e-06
-5.79153e-06
-5.79152e-06
-5.7915e-06
-5.79148e-06
-5.79147e-06
-5.79145e-06
-5.79143e-06
-5.79141e-06
-5.79139e-06
-5.79137e-06
-5.79135e-06
-5.79133e-06
-5.79131e-06
-5.79129e-06
-5.79128e-06
-5.79125e-06
-5.79123e-06
-5.79122e-06
-5.7912e-06
-5.79118e-06
-5.79116e-06
-5.79114e-06
-5.79112e-06
-5.7911e-06
-5.79109e-06
-5.79107e-06
-5.79105e-06
-5.79104e-06
-5.79103e-06
-5.79101e-06
-5.791e-06
-5.79099e-06
-5.79098e-06
-5.79097e-06
-5.79096e-06
-5.79095e-06
-5.79094e-06
-5.79094e-06
-5.79093e-06
-5.79093e-06
-5.79092e-06
-5.79092e-06
-5.79092e-06
-5.79092e-06
-5.79091e-06
-5.79091e-06
-5.79091e-06
-5.79091e-06
-5.79092e-06
-5.79092e-06
-5.79092e-06
-5.79093e-06
-5.79093e-06
-5.79093e-06
-5.79094e-06
-5.79094e-06
-5.79095e-06
-5.79096e-06
-5.79096e-06
-5.79097e-06
-5.79098e-06
-5.79099e-06
-5.791e-06
-5.79101e-06
-5.79103e-06
-5.79104e-06
-5.79106e-06
-5.79108e-06
-5.7911e-06
-5.79112e-06
-5.79115e-06
-5.79118e-06
-5.79121e-06
-5.79126e-06
-5.79131e-06
-5.79136e-06
-5.79143e-06
-5.79151e-06
-5.79159e-06
-5.7917e-06
-5.79182e-06
-5.79196e-06
-5.79212e-06
-5.7923e-06
-5.79252e-06
-5.79277e-06
-5.79306e-06
-5.79339e-06
-5.79377e-06
-5.79421e-06
-5.79471e-06
-5.79529e-06
-5.79595e-06
-5.79672e-06
-5.79759e-06
-5.79858e-06
-5.79971e-06
-5.80101e-06
-5.80248e-06
-5.80415e-06
-5.80604e-06
-5.80819e-06
-5.81062e-06
-5.81337e-06
-5.81648e-06
-5.81998e-06
-5.82393e-06
-5.82836e-06
-5.83335e-06
-5.83894e-06
-5.8452e-06
-5.8522e-06
-5.86003e-06
-5.86877e-06
-5.8785e-06
-5.88933e-06
-5.90137e-06
-5.91472e-06
-5.92952e-06
-5.94591e-06
-5.96401e-06
-5.984e-06
-6.00602e-06
-6.03025e-06
-6.05689e-06
-6.08613e-06
-6.11817e-06
-6.15323e-06
-6.19155e-06
-6.23338e-06
-6.27895e-06
-6.32856e-06
-6.38246e-06
-6.44097e-06
-6.50437e-06
-6.57299e-06
-6.64715e-06
-6.72719e-06
-6.81346e-06
-6.90632e-06
-7.00614e-06
-7.11331e-06
-7.22821e-06
-7.35123e-06
-7.4828e-06
-7.62333e-06
-7.77324e-06
-7.93297e-06
-8.10295e-06
-8.28364e-06
-8.47549e-06
-8.67897e-06
-8.89454e-06
-9.12269e-06
-9.3639e-06
-9.61866e-06
-9.88747e-06
-1.01709e-05
-1.04693e-05
-1.07834e-05
-1.11137e-05
-1.14607e-05
-1.1825e-05
-1.22073e-05
-1.26081e-05
-1.30281e-05
-1.34679e-05
-1.39284e-05
-1.44101e-05
-1.4914e-05
-1.54409e-05
-1.59915e-05
-1.65667e-05
-1.71674e-05
-1.77943e-05
-1.84471e-05
-1.91142e-05
-1.98435e-05
-2.06023e-05
-2.13938e-05
-2.22206e-05
-2.30853e-05
-2.39901e-05
-2.49367e-05
-2.59261e-05
-2.69584e-05
-2.80314e-05
-2.91394e-05
-3.0271e-05
-3.1405e-05
-3.25034e-05
-3.34995e-05
-3.42755e-05
)
;

boundaryField
{
    fixedWall
    {
        type            calculated;
        value           uniform 0;
    }
    outlet
    {
        type            calculated;
        value           uniform -3.46207e-05;
    }
    defaultFaces
    {
        type            empty;
    }
}


// ************************************************************************* //
