/*--------------------------------*- C++ -*----------------------------------*\
| =========                 |                                                 |
| \\      /  F ield         | OpenFOAM: The Open Source CFD Toolbox           |
|  \\    /   O peration     | Version:  2406                                  |
|   \\  /    A nd           | Website:  www.openfoam.com                      |
|    \\/     M anipulation  |                                                 |
\*---------------------------------------------------------------------------*/
FoamFile
{
    version     2.0;
    format      ascii;
    arch        "LSB;label=32;scalar=64";
    class       volScalarField;
    location    "15";
    object      CO2;
}
// * * * * * * * * * * * * * * * * * * * * * * * * * * * * * * * * * * * * * //

dimensions      [0 0 0 0 0 0 0];

internalField   nonuniform List<scalar> 
1000
(
0.0709262
0.0709262
0.0709262
0.0709262
0.0709262
0.0709262
0.0709262
0.0709262
0.0709262
0.0709262
0.0709262
0.0709262
0.0709262
0.0709262
0.0709262
0.0709262
0.0709262
0.0709262
0.0709263
0.0709263
0.0709263
0.0709263
0.0709263
0.0709263
0.0709263
0.0709263
0.0709263
0.0709263
0.0709263
0.0709263
0.0709263
0.0709263
0.0709264
0.0709264
0.0709264
0.0709264
0.0709264
0.0709264
0.0709264
0.0709264
0.0709264
0.0709264
0.0709264
0.0709264
0.0709264
0.0709265
0.0709265
0.0709265
0.0709265
0.0709265
0.0709265
0.0709265
0.0709265
0.0709265
0.0709265
0.0709265
0.0709265
0.0709265
0.0709265
0.0709265
0.0709266
0.0709266
0.0709266
0.0709266
0.0709266
0.0709266
0.0709266
0.0709266
0.0709266
0.0709266
0.0709266
0.0709266
0.0709266
0.0709266
0.0709266
0.0709266
0.0709266
0.0709266
0.0709266
0.0709266
0.0709266
0.0709266
0.0709267
0.0709267
0.0709267
0.0709267
0.0709267
0.0709267
0.0709267
0.0709267
0.0709267
0.0709267
0.0709267
0.0709267
0.0709267
0.0709267
0.0709267
0.0709267
0.0709267
0.0709267
0.0709267
0.0709267
0.0709267
0.0709267
0.0709267
0.0709267
0.0709267
0.0709267
0.0709267
0.0709267
0.0709267
0.0709267
0.0709267
0.0709267
0.0709267
0.0709267
0.0709267
0.0709267
0.0709267
0.0709267
0.0709267
0.0709267
0.0709267
0.0709267
0.0709267
0.0709267
0.0709267
0.0709267
0.0709267
0.0709267
0.0709267
0.0709267
0.0709267
0.0709267
0.0709267
0.0709267
0.0709267
0.0709267
0.0709267
0.0709267
0.0709267
0.0709267
0.0709267
0.0709267
0.0709267
0.0709267
0.0709268
0.0709268
0.0709268
0.0709268
0.0709268
0.0709268
0.0709268
0.0709268
0.0709268
0.0709268
0.0709268
0.0709268
0.0709268
0.0709268
0.0709268
0.0709268
0.0709268
0.0709268
0.0709268
0.0709268
0.0709268
0.0709268
0.0709268
0.0709268
0.0709268
0.0709268
0.0709268
0.0709268
0.0709268
0.0709268
0.0709268
0.0709268
0.0709268
0.0709268
0.0709268
0.0709268
0.0709268
0.0709268
0.0709268
0.0709268
0.0709268
0.0709268
0.0709268
0.0709268
0.0709268
0.0709268
0.0709268
0.0709268
0.0709268
0.0709268
0.0709268
0.0709268
0.0709268
0.0709268
0.0709268
0.0709268
0.0709268
0.0709268
0.0709268
0.0709268
0.0709268
0.0709268
0.0709268
0.0709268
0.0709268
0.0709268
0.0709268
0.0709268
0.0709268
0.0709268
0.0709268
0.0709268
0.0709268
0.0709268
0.0709268
0.0709268
0.0709268
0.0709268
0.0709268
0.0709268
0.0709268
0.0709268
0.0709268
0.0709268
0.0709268
0.0709268
0.0709268
0.0709268
0.0709268
0.0709268
0.0709268
0.0709268
0.0709268
0.0709268
0.0709268
0.0709268
0.0709268
0.0709268
0.0709268
0.0709268
0.0709268
0.0709268
0.0709268
0.0709268
0.0709268
0.0709268
0.0709268
0.0709268
0.0709268
0.0709268
0.0709268
0.0709268
0.0709268
0.0709268
0.0709268
0.0709268
0.0709268
0.0709268
0.0709268
0.0709268
0.0709268
0.0709268
0.0709268
0.0709268
0.0709268
0.0709268
0.0709268
0.0709268
0.0709268
0.0709268
0.0709268
0.0709268
0.0709268
0.0709268
0.0709268
0.0709268
0.0709268
0.0709268
0.0709268
0.0709268
0.0709268
0.0709268
0.0709268
0.0709268
0.0709268
0.0709268
0.0709268
0.0709268
0.0709268
0.0709268
0.0709268
0.0709268
0.0709268
0.0709268
0.0709268
0.0709268
0.0709268
0.0709268
0.0709268
0.0709268
0.0709268
0.0709268
0.0709268
0.0709268
0.0709268
0.0709268
0.0709268
0.0709268
0.0709268
0.0709268
0.0709268
0.0709268
0.0709268
0.0709268
0.0709268
0.0709268
0.0709268
0.0709268
0.0709268
0.0709268
0.0709268
0.0709268
0.0709268
0.0709268
0.0709268
0.0709268
0.0709268
0.0709268
0.0709268
0.0709268
0.0709268
0.0709268
0.0709268
0.0709268
0.0709268
0.0709268
0.0709268
0.0709268
0.0709268
0.0709268
0.0709268
0.0709268
0.0709268
0.0709268
0.0709268
0.0709268
0.0709268
0.0709268
0.0709268
0.0709268
0.0709268
0.0709268
0.0709268
0.0709268
0.0709268
0.0709268
0.0709268
0.0709268
0.0709268
0.0709268
0.0709268
0.0709268
0.0709268
0.0709267
0.0709267
0.0709267
0.0709267
0.0709267
0.0709267
0.0709267
0.0709267
0.0709267
0.0709267
0.0709267
0.0709267
0.0709267
0.0709267
0.0709267
0.0709267
0.0709267
0.0709267
0.0709267
0.0709267
0.0709267
0.0709267
0.0709267
0.0709267
0.0709267
0.0709267
0.0709267
0.0709267
0.0709267
0.0709267
0.0709267
0.0709267
0.0709267
0.0709267
0.0709267
0.0709267
0.0709267
0.0709267
0.0709267
0.0709267
0.0709267
0.0709267
0.0709267
0.0709267
0.0709267
0.0709267
0.0709267
0.0709267
0.0709267
0.0709267
0.0709267
0.0709267
0.0709267
0.0709267
0.0709267
0.0709267
0.0709267
0.0709267
0.0709267
0.0709267
0.0709267
0.0709267
0.0709267
0.0709267
0.0709267
0.0709267
0.0709267
0.0709267
0.0709267
0.0709267
0.0709267
0.0709267
0.0709267
0.0709267
0.0709267
0.0709267
0.0709267
0.0709267
0.0709267
0.0709267
0.0709267
0.0709267
0.0709267
0.0709267
0.0709267
0.0709267
0.0709267
0.0709267
0.0709267
0.0709267
0.0709267
0.0709267
0.0709267
0.0709267
0.0709267
0.0709267
0.0709267
0.0709267
0.0709267
0.0709267
0.0709267
0.0709267
0.0709267
0.0709267
0.0709267
0.0709267
0.0709267
0.0709267
0.0709267
0.0709267
0.0709267
0.0709267
0.0709267
0.0709267
0.0709267
0.0709267
0.0709267
0.0709267
0.0709267
0.0709267
0.0709267
0.0709267
0.0709267
0.0709267
0.0709267
0.0709267
0.0709267
0.0709267
0.0709267
0.0709267
0.0709267
0.0709267
0.0709267
0.0709267
0.0709267
0.0709267
0.0709267
0.0709267
0.0709267
0.0709267
0.0709267
0.0709267
0.0709267
0.0709267
0.0709267
0.0709267
0.0709267
0.0709267
0.0709267
0.0709267
0.0709267
0.0709267
0.0709267
0.0709267
0.0709267
0.0709267
0.0709267
0.0709267
0.0709267
0.0709267
0.0709267
0.0709267
0.0709267
0.0709267
0.0709267
0.0709267
0.0709267
0.0709267
0.0709267
0.0709267
0.0709267
0.0709267
0.0709267
0.0709267
0.0709267
0.0709267
0.0709267
0.0709267
0.0709267
0.0709267
0.0709267
0.0709267
0.0709267
0.0709267
0.0709267
0.0709267
0.0709267
0.0709267
0.0709267
0.0709267
0.0709267
0.0709267
0.0709267
0.0709267
0.0709267
0.0709267
0.0709267
0.0709267
0.0709267
0.0709267
0.0709267
0.0709267
0.0709267
0.0709267
0.0709267
0.0709267
0.0709267
0.0709267
0.0709267
0.0709267
0.0709267
0.0709267
0.0709267
0.0709267
0.0709267
0.0709267
0.0709267
0.0709267
0.0709267
0.0709267
0.0709267
0.0709267
0.0709267
0.0709267
0.0709267
0.0709267
0.0709267
0.0709267
0.0709267
0.0709267
0.0709267
0.0709267
0.0709267
0.0709267
0.0709267
0.0709267
0.0709267
0.0709267
0.0709267
0.0709267
0.0709267
0.0709267
0.0709267
0.0709267
0.0709267
0.0709267
0.0709267
0.0709267
0.0709267
0.0709267
0.0709267
0.0709267
0.0709267
0.0709267
0.0709267
0.0709267
0.0709267
0.0709267
0.0709267
0.0709267
0.0709267
0.0709267
0.0709267
0.0709267
0.0709267
0.0709267
0.0709267
0.0709267
0.0709267
0.0709267
0.0709267
0.0709267
0.0709267
0.0709267
0.0709267
0.0709267
0.0709267
0.0709267
0.0709267
0.0709267
0.0709267
0.0709267
0.0709267
0.0709267
0.0709267
0.0709267
0.0709267
0.0709267
0.0709267
0.0709267
0.0709267
0.0709267
0.0709267
0.0709267
0.0709267
0.0709267
0.0709267
0.0709267
0.0709267
0.0709267
0.0709267
0.0709267
0.0709267
0.0709267
0.0709267
0.0709267
0.0709267
0.0709267
0.0709267
0.0709267
0.0709267
0.0709267
0.0709267
0.0709267
0.0709267
0.0709267
0.0709267
0.0709267
0.0709267
0.0709267
0.0709267
0.0709267
0.0709267
0.0709267
0.0709267
0.0709267
0.0709267
0.0709267
0.0709267
0.0709267
0.0709267
0.0709267
0.0709267
0.0709267
0.0709267
0.0709267
0.0709267
0.0709267
0.0709267
0.0709267
0.0709267
0.0709267
0.0709267
0.0709267
0.0709267
0.0709267
0.0709267
0.0709267
0.0709267
0.0709267
0.0709267
0.0709267
0.0709267
0.0709267
0.0709267
0.0709267
0.0709267
0.0709267
0.0709267
0.0709267
0.0709266
0.0709266
0.0709266
0.0709266
0.0709266
0.0709266
0.0709266
0.0709266
0.0709266
0.0709265
0.0709265
0.0709265
0.0709265
0.0709265
0.0709264
0.0709264
0.0709264
0.0709263
0.0709263
0.0709263
0.0709262
0.0709262
0.0709261
0.0709261
0.070926
0.070926
0.0709259
0.0709258
0.0709257
0.0709257
0.0709256
0.0709255
0.0709254
0.0709252
0.0709251
0.070925
0.0709248
0.0709247
0.0709245
0.0709243
0.0709241
0.0709239
0.0709237
0.0709234
0.0709231
0.0709228
0.0709225
0.0709222
0.0709218
0.0709214
0.070921
0.0709206
0.0709201
0.0709195
0.070919
0.0709184
0.0709177
0.070917
0.0709163
0.0709155
0.0709146
0.0709137
0.0709127
0.0709117
0.0709106
0.0709093
0.0709081
0.0709067
0.0709052
0.0709036
0.0709019
0.0709001
0.0708982
0.0708961
0.070894
0.0708916
0.0708891
0.0708865
0.0708836
0.0708806
0.0708774
0.070874
0.0708703
0.0708665
0.0708623
0.070858
0.0708533
0.0708484
0.0708431
0.0708375
0.0708316
0.0708253
0.0708187
0.0708116
0.0708041
0.0707962
0.0707878
0.0707789
0.0707694
0.0707595
0.0707489
0.0707377
0.070726
0.0707135
0.0707003
0.0706864
0.0706717
0.0706562
0.0706399
0.0706227
0.0706045
0.0705853
0.0705651
0.0705439
0.0705215
0.0704979
0.0704731
0.0704471
0.0704196
0.0703908
0.0703605
0.0703287
0.0702953
0.0702603
0.0702235
0.0701849
0.0701444
0.070102
0.0700575
0.0700109
0.0699621
0.0699111
0.0698576
0.0698017
0.0697432
0.0696821
0.0696182
0.0695514
0.0694817
0.0694089
0.069333
0.0692537
0.069171
0.0690848
0.068995
0.0689013
0.0688038
0.0687023
0.0685966
0.0684866
0.0683722
0.0682533
0.0681297
0.0680012
0.0678677
0.0677291
0.0675853
0.067436
0.0672812
0.0671206
0.0669541
0.0667816
0.0666029
0.0664179
0.0662263
0.0660281
0.065823
0.0656109
0.0653917
0.0651651
0.064931
0.0646893
0.0644398
0.0641823
0.0639166
0.0636427
0.0633603
0.0630693
0.0627695
0.0624608
0.062143
0.0618159
0.0614795
0.0611336
0.0607779
0.0604125
0.0600372
0.0596518
0.0592561
0.0588502
0.0584339
0.058007
0.0575694
0.0571211
0.056662
0.056192
0.0557109
0.0552188
0.0547155
0.0542011
0.0536754
0.0531385
0.0525902
0.0520306
0.0514597
0.0508775
0.0502839
0.049679
0.0490629
0.0484355
0.047797
0.0471473
0.0464866
0.045815
0.0451326
0.0444394
0.0437357
0.0430215
0.042297
0.0415624
0.0408178
0.0400634
0.0392995
0.0385262
0.0377437
0.0369612
0.0361726
0.0353645
0.0345486
0.0337253
0.0328948
0.0320575
0.0312137
0.0303639
0.0295083
0.0286474
0.0277816
0.0269115
0.0260374
0.0251598
0.0242793
0.0233965
0.0225118
0.0216258
0.0207391
0.0198525
0.0189664
0.0180817
0.0171989
0.0163189
0.0154424
0.0145701
0.0137031
0.012842
0.0119879
0.0111418
0.0103046
0.00947739
0.00866142
0.00785786
0.00706799
0.00629317
0.00553485
0.00479457
0.00407395
0.00337471
0.00269865
0.00204766
0.00142373
0.000828878
0.000265194
)
;

boundaryField
{
    fixedWall
    {
        type            zeroGradient;
    }
    outlet
    {
        type            inletOutlet;
        inletValue      uniform 0;
        value           uniform 0;
    }
    defaultFaces
    {
        type            empty;
    }
}


// ************************************************************************* //
