/*--------------------------------*- C++ -*----------------------------------*\
| =========                 |                                                 |
| \\      /  F ield         | OpenFOAM: The Open Source CFD Toolbox           |
|  \\    /   O peration     | Version:  2406                                  |
|   \\  /    A nd           | Website:  www.openfoam.com                      |
|    \\/     M anipulation  |                                                 |
\*---------------------------------------------------------------------------*/
FoamFile
{
    version     2.0;
    format      ascii;
    arch        "LSB;label=32;scalar=64";
    class       volScalarField;
    location    "15";
    object      O2;
}
// * * * * * * * * * * * * * * * * * * * * * * * * * * * * * * * * * * * * * //

dimensions      [0 0 0 0 0 0 0];

internalField   nonuniform List<scalar> 
1000
(
9.76559e-07
9.75301e-07
9.72985e-07
9.69758e-07
9.65739e-07
9.6102e-07
9.5568e-07
9.49782e-07
9.43381e-07
9.36526e-07
9.29258e-07
9.21614e-07
9.13626e-07
9.05325e-07
8.96737e-07
8.87886e-07
8.78795e-07
8.69484e-07
8.59972e-07
8.50278e-07
8.40418e-07
8.30408e-07
8.20261e-07
8.09992e-07
7.99614e-07
7.8914e-07
7.78581e-07
7.67948e-07
7.57253e-07
7.46506e-07
7.35716e-07
7.24895e-07
7.1405e-07
7.03191e-07
6.92327e-07
6.81466e-07
6.70618e-07
6.59789e-07
6.48988e-07
6.38223e-07
6.27501e-07
6.1683e-07
6.06216e-07
5.95666e-07
5.85188e-07
5.74788e-07
5.64472e-07
5.54246e-07
5.44116e-07
5.34088e-07
5.24166e-07
5.14357e-07
5.04664e-07
4.95093e-07
4.85648e-07
4.76333e-07
4.67152e-07
4.58107e-07
4.49203e-07
4.40442e-07
4.31827e-07
4.2336e-07
4.15044e-07
4.06879e-07
3.98869e-07
3.91013e-07
3.83313e-07
3.75769e-07
3.68383e-07
3.61154e-07
3.54083e-07
3.47169e-07
3.40412e-07
3.33811e-07
3.27366e-07
3.21075e-07
3.14938e-07
3.08953e-07
3.03119e-07
2.97435e-07
2.91898e-07
2.86507e-07
2.81259e-07
2.76154e-07
2.71188e-07
2.6636e-07
2.61668e-07
2.57109e-07
2.5268e-07
2.4838e-07
2.44206e-07
2.40155e-07
2.36225e-07
2.32414e-07
2.28719e-07
2.25137e-07
2.21666e-07
2.18303e-07
2.15046e-07
2.11893e-07
2.0884e-07
2.05886e-07
2.03028e-07
2.00263e-07
1.97588e-07
1.95003e-07
1.92504e-07
1.90089e-07
1.87755e-07
1.85501e-07
1.83324e-07
1.81222e-07
1.79192e-07
1.77234e-07
1.75344e-07
1.73521e-07
1.71763e-07
1.70067e-07
1.68432e-07
1.66856e-07
1.65338e-07
1.63875e-07
1.62465e-07
1.61108e-07
1.59801e-07
1.58542e-07
1.57331e-07
1.56166e-07
1.55045e-07
1.53967e-07
1.5293e-07
1.51933e-07
1.50975e-07
1.50054e-07
1.4917e-07
1.4832e-07
1.47505e-07
1.46721e-07
1.4597e-07
1.45249e-07
1.44557e-07
1.43893e-07
1.43257e-07
1.42648e-07
1.42064e-07
1.41504e-07
1.40968e-07
1.40455e-07
1.39965e-07
1.39495e-07
1.39046e-07
1.38617e-07
1.38207e-07
1.37815e-07
1.37441e-07
1.37085e-07
1.36744e-07
1.3642e-07
1.3611e-07
1.35816e-07
1.35535e-07
1.35268e-07
1.35015e-07
1.34774e-07
1.34545e-07
1.34328e-07
1.34122e-07
1.33926e-07
1.33742e-07
1.33567e-07
1.33402e-07
1.33246e-07
1.33099e-07
1.32961e-07
1.32831e-07
1.32709e-07
1.32594e-07
1.32487e-07
1.32387e-07
1.32294e-07
1.32207e-07
1.32126e-07
1.32051e-07
1.31982e-07
1.31919e-07
1.31861e-07
1.31808e-07
1.3176e-07
1.31716e-07
1.31677e-07
1.31643e-07
1.31612e-07
1.31586e-07
1.31563e-07
1.31544e-07
1.31529e-07
1.31516e-07
1.31507e-07
1.31502e-07
1.31499e-07
1.31499e-07
1.31501e-07
1.31507e-07
1.31515e-07
1.31525e-07
1.31537e-07
1.31552e-07
1.31569e-07
1.31588e-07
1.31609e-07
1.31632e-07
1.31656e-07
1.31682e-07
1.3171e-07
1.31739e-07
1.3177e-07
1.31803e-07
1.31836e-07
1.31871e-07
1.31908e-07
1.31945e-07
1.31984e-07
1.32024e-07
1.32064e-07
1.32106e-07
1.32149e-07
1.32193e-07
1.32237e-07
1.32283e-07
1.32329e-07
1.32376e-07
1.32424e-07
1.32472e-07
1.32521e-07
1.32571e-07
1.32621e-07
1.32672e-07
1.32724e-07
1.32776e-07
1.32829e-07
1.32882e-07
1.32936e-07
1.3299e-07
1.33044e-07
1.33099e-07
1.33154e-07
1.3321e-07
1.33266e-07
1.33322e-07
1.33379e-07
1.33436e-07
1.33493e-07
1.33551e-07
1.33609e-07
1.33667e-07
1.33725e-07
1.33784e-07
1.33843e-07
1.33902e-07
1.33962e-07
1.34021e-07
1.34081e-07
1.34141e-07
1.34201e-07
1.34261e-07
1.34322e-07
1.34382e-07
1.34443e-07
1.34504e-07
1.34565e-07
1.34626e-07
1.34688e-07
1.34749e-07
1.34811e-07
1.34873e-07
1.34934e-07
1.34996e-07
1.35058e-07
1.35121e-07
1.35183e-07
1.35245e-07
1.35308e-07
1.3537e-07
1.35433e-07
1.35496e-07
1.35558e-07
1.35621e-07
1.35684e-07
1.35747e-07
1.3581e-07
1.35874e-07
1.35937e-07
1.36e-07
1.36064e-07
1.36127e-07
1.36191e-07
1.36254e-07
1.36318e-07
1.36382e-07
1.36446e-07
1.36509e-07
1.36573e-07
1.36637e-07
1.36701e-07
1.36766e-07
1.3683e-07
1.36894e-07
1.36958e-07
1.37023e-07
1.37087e-07
1.37151e-07
1.37216e-07
1.3728e-07
1.37345e-07
1.3741e-07
1.37474e-07
1.37539e-07
1.37604e-07
1.37669e-07
1.37734e-07
1.37799e-07
1.37864e-07
1.37929e-07
1.37994e-07
1.3806e-07
1.38125e-07
1.3819e-07
1.38256e-07
1.38321e-07
1.38387e-07
1.38452e-07
1.38518e-07
1.38584e-07
1.38649e-07
1.38715e-07
1.38781e-07
1.38847e-07
1.38913e-07
1.38979e-07
1.39045e-07
1.39111e-07
1.39177e-07
1.39244e-07
1.3931e-07
1.39376e-07
1.39443e-07
1.39509e-07
1.39576e-07
1.39642e-07
1.39709e-07
1.39776e-07
1.39843e-07
1.3991e-07
1.39977e-07
1.40044e-07
1.4011e-07
1.40178e-07
1.40245e-07
1.40312e-07
1.40379e-07
1.40447e-07
1.40514e-07
1.40582e-07
1.40649e-07
1.40717e-07
1.40785e-07
1.40852e-07
1.4092e-07
1.40988e-07
1.41056e-07
1.41124e-07
1.41192e-07
1.41261e-07
1.41329e-07
1.41397e-07
1.41465e-07
1.41534e-07
1.41602e-07
1.41671e-07
1.41739e-07
1.41808e-07
1.41877e-07
1.41946e-07
1.42015e-07
1.42084e-07
1.42153e-07
1.42222e-07
1.42291e-07
1.4236e-07
1.4243e-07
1.42499e-07
1.42568e-07
1.42638e-07
1.42708e-07
1.42777e-07
1.42847e-07
1.42917e-07
1.42987e-07
1.43057e-07
1.43127e-07
1.43197e-07
1.43267e-07
1.43337e-07
1.43408e-07
1.43478e-07
1.43548e-07
1.43619e-07
1.4369e-07
1.4376e-07
1.43831e-07
1.43902e-07
1.43973e-07
1.44044e-07
1.44115e-07
1.44186e-07
1.44257e-07
1.44328e-07
1.444e-07
1.44471e-07
1.44542e-07
1.44614e-07
1.44686e-07
1.44757e-07
1.44829e-07
1.44901e-07
1.44973e-07
1.45045e-07
1.45117e-07
1.45189e-07
1.45261e-07
1.45333e-07
1.45406e-07
1.45478e-07
1.45551e-07
1.45623e-07
1.45696e-07
1.45769e-07
1.45841e-07
1.45914e-07
1.45987e-07
1.4606e-07
1.46133e-07
1.46206e-07
1.4628e-07
1.46353e-07
1.46426e-07
1.465e-07
1.46573e-07
1.46647e-07
1.4672e-07
1.46794e-07
1.46868e-07
1.46942e-07
1.47016e-07
1.4709e-07
1.47164e-07
1.47238e-07
1.47313e-07
1.47387e-07
1.47461e-07
1.47536e-07
1.4761e-07
1.47685e-07
1.4776e-07
1.47835e-07
1.4791e-07
1.47985e-07
1.4806e-07
1.48135e-07
1.4821e-07
1.48285e-07
1.48361e-07
1.48436e-07
1.48512e-07
1.48587e-07
1.48663e-07
1.48739e-07
1.48815e-07
1.4889e-07
1.48966e-07
1.49043e-07
1.49119e-07
1.49195e-07
1.49271e-07
1.49347e-07
1.49424e-07
1.495e-07
1.49577e-07
1.49654e-07
1.4973e-07
1.49807e-07
1.49884e-07
1.49961e-07
1.50038e-07
1.50116e-07
1.50193e-07
1.5027e-07
1.50347e-07
1.50425e-07
1.50503e-07
1.5058e-07
1.50658e-07
1.50736e-07
1.50814e-07
1.50892e-07
1.5097e-07
1.51048e-07
1.51126e-07
1.51204e-07
1.51283e-07
1.51361e-07
1.5144e-07
1.51518e-07
1.51597e-07
1.51676e-07
1.51754e-07
1.51833e-07
1.51912e-07
1.51991e-07
1.52071e-07
1.5215e-07
1.52229e-07
1.52309e-07
1.52388e-07
1.52468e-07
1.52547e-07
1.52627e-07
1.52707e-07
1.52787e-07
1.52867e-07
1.52947e-07
1.53027e-07
1.53108e-07
1.53188e-07
1.53268e-07
1.53349e-07
1.53429e-07
1.5351e-07
1.53591e-07
1.53672e-07
1.53753e-07
1.53834e-07
1.53915e-07
1.53996e-07
1.54077e-07
1.54159e-07
1.5424e-07
1.54322e-07
1.54403e-07
1.54485e-07
1.54567e-07
1.54649e-07
1.5473e-07
1.54813e-07
1.54895e-07
1.54977e-07
1.55059e-07
1.55142e-07
1.55224e-07
1.55307e-07
1.55389e-07
1.55472e-07
1.55555e-07
1.55638e-07
1.55721e-07
1.55804e-07
1.55887e-07
1.5597e-07
1.56054e-07
1.56137e-07
1.56221e-07
1.56304e-07
1.56388e-07
1.56472e-07
1.56556e-07
1.5664e-07
1.56724e-07
1.56808e-07
1.56892e-07
1.56977e-07
1.57061e-07
1.57146e-07
1.5723e-07
1.57315e-07
1.574e-07
1.57485e-07
1.5757e-07
1.57655e-07
1.5774e-07
1.57825e-07
1.5791e-07
1.57996e-07
1.58081e-07
1.58167e-07
1.58253e-07
1.58339e-07
1.58425e-07
1.58511e-07
1.58597e-07
1.58683e-07
1.58769e-07
1.58856e-07
1.58942e-07
1.59029e-07
1.59115e-07
1.59202e-07
1.59289e-07
1.59376e-07
1.59463e-07
1.5955e-07
1.59638e-07
1.59725e-07
1.59812e-07
1.599e-07
1.59988e-07
1.60075e-07
1.60163e-07
1.60251e-07
1.60339e-07
1.60427e-07
1.60516e-07
1.60604e-07
1.60692e-07
1.60781e-07
1.60869e-07
1.60958e-07
1.61047e-07
1.61136e-07
1.61225e-07
1.61314e-07
1.61403e-07
1.61493e-07
1.61582e-07
1.61672e-07
1.61761e-07
1.61851e-07
1.61941e-07
1.62031e-07
1.62121e-07
1.62211e-07
1.62301e-07
1.62391e-07
1.62482e-07
1.62572e-07
1.62663e-07
1.62754e-07
1.62844e-07
1.62935e-07
1.63027e-07
1.63118e-07
1.63209e-07
1.633e-07
1.63392e-07
1.63483e-07
1.63574e-07
1.63666e-07
1.63758e-07
1.6385e-07
1.63942e-07
1.64034e-07
1.64126e-07
1.64219e-07
1.64311e-07
1.64404e-07
1.64496e-07
1.64589e-07
1.64682e-07
1.64775e-07
1.64868e-07
1.64961e-07
1.65054e-07
1.65147e-07
1.65241e-07
1.65335e-07
1.65428e-07
1.65522e-07
1.65616e-07
1.6571e-07
1.65804e-07
1.65898e-07
1.65993e-07
1.66087e-07
1.66181e-07
1.66276e-07
1.66371e-07
1.66466e-07
1.66561e-07
1.66656e-07
1.66751e-07
1.66846e-07
1.66942e-07
1.67037e-07
1.67133e-07
1.67228e-07
1.67324e-07
1.6742e-07
1.67516e-07
1.67613e-07
1.67709e-07
1.67805e-07
1.67902e-07
1.67999e-07
1.68095e-07
1.68192e-07
1.68289e-07
1.68386e-07
1.68484e-07
1.68581e-07
1.68679e-07
1.68776e-07
1.68874e-07
1.68972e-07
1.6907e-07
1.69168e-07
1.69267e-07
1.69365e-07
1.69464e-07
1.69563e-07
1.69662e-07
1.69761e-07
1.6986e-07
1.69959e-07
1.70059e-07
1.70158e-07
1.70258e-07
1.70358e-07
1.70459e-07
1.70559e-07
1.7066e-07
1.7076e-07
1.70861e-07
1.70962e-07
1.71064e-07
1.71165e-07
1.71267e-07
1.71369e-07
1.71472e-07
1.71574e-07
1.71677e-07
1.7178e-07
1.71883e-07
1.71987e-07
1.7209e-07
1.72195e-07
1.72299e-07
1.72404e-07
1.72509e-07
1.72614e-07
1.7272e-07
1.72826e-07
1.72933e-07
1.7304e-07
1.73148e-07
1.73256e-07
1.73364e-07
1.73473e-07
1.73582e-07
1.73693e-07
1.73803e-07
1.73914e-07
1.74026e-07
1.74139e-07
1.74252e-07
1.74366e-07
1.74481e-07
1.74597e-07
1.74713e-07
1.7483e-07
1.74949e-07
1.75068e-07
1.75189e-07
1.7531e-07
1.75433e-07
1.75557e-07
1.75683e-07
1.7581e-07
1.75938e-07
1.76068e-07
1.76199e-07
1.76332e-07
1.76467e-07
1.76604e-07
1.76743e-07
1.76884e-07
1.77028e-07
1.77173e-07
1.77321e-07
1.77472e-07
1.77626e-07
1.77782e-07
1.77942e-07
1.78105e-07
1.78271e-07
1.78441e-07
1.78614e-07
1.78792e-07
1.78974e-07
1.7916e-07
1.7935e-07
1.79546e-07
1.79747e-07
1.79953e-07
1.80165e-07
1.80383e-07
1.80607e-07
1.80838e-07
1.81075e-07
1.8132e-07
1.81573e-07
1.81834e-07
1.82103e-07
1.82381e-07
1.82668e-07
1.82965e-07
1.83273e-07
1.83591e-07
1.8392e-07
1.84261e-07
1.84615e-07
1.84982e-07
1.85362e-07
1.85757e-07
1.86166e-07
1.86591e-07
1.87033e-07
1.87492e-07
1.87969e-07
1.88464e-07
1.88979e-07
1.89515e-07
1.90072e-07
1.90652e-07
1.91256e-07
1.91884e-07
1.92537e-07
1.93217e-07
1.93926e-07
1.94663e-07
1.95431e-07
1.96231e-07
1.97064e-07
1.97932e-07
1.98835e-07
1.99776e-07
2.00756e-07
2.01778e-07
2.02841e-07
2.03949e-07
2.05102e-07
2.06304e-07
2.07555e-07
2.08858e-07
2.10215e-07
2.11628e-07
2.13099e-07
2.1463e-07
2.16224e-07
2.17883e-07
2.1961e-07
2.21406e-07
2.23275e-07
2.25219e-07
2.27241e-07
2.29344e-07
2.3153e-07
2.33803e-07
2.36166e-07
2.38621e-07
2.41171e-07
2.43821e-07
2.46573e-07
2.4943e-07
2.52396e-07
2.55475e-07
2.58669e-07
2.61982e-07
2.65419e-07
2.68982e-07
2.72675e-07
2.76502e-07
2.80467e-07
2.84574e-07
2.88826e-07
2.93226e-07
2.9778e-07
3.0249e-07
3.0736e-07
3.12395e-07
3.17597e-07
3.2297e-07
3.28518e-07
3.34245e-07
3.40153e-07
3.46245e-07
3.52526e-07
3.58998e-07
3.65663e-07
3.72524e-07
3.79583e-07
3.86842e-07
3.94304e-07
4.01969e-07
4.09839e-07
4.17914e-07
4.26195e-07
4.34681e-07
4.43372e-07
4.52266e-07
4.61362e-07
4.70658e-07
4.80151e-07
4.89836e-07
4.99709e-07
5.09766e-07
5.20001e-07
5.30405e-07
5.40973e-07
5.51694e-07
5.6256e-07
5.7356e-07
5.84682e-07
5.95912e-07
6.07238e-07
6.18643e-07
6.30113e-07
6.41628e-07
6.5317e-07
6.6472e-07
6.76257e-07
6.87757e-07
6.99197e-07
7.10553e-07
7.21798e-07
7.32906e-07
7.43848e-07
7.54595e-07
7.65118e-07
7.75385e-07
7.85364e-07
7.95023e-07
8.04329e-07
8.13248e-07
8.21746e-07
8.29789e-07
8.37342e-07
8.44372e-07
8.50843e-07
8.56721e-07
8.61973e-07
8.66565e-07
8.70464e-07
8.73639e-07
8.76059e-07
8.77692e-07
8.78502e-07
8.78479e-07
8.77587e-07
8.758e-07
8.73097e-07
8.69453e-07
8.6485e-07
8.59268e-07
8.52691e-07
8.45104e-07
8.36493e-07
8.26848e-07
8.1616e-07
8.04423e-07
7.91631e-07
7.77782e-07
7.62879e-07
7.46922e-07
7.29918e-07
7.11875e-07
6.92805e-07
6.72723e-07
6.51646e-07
6.29597e-07
6.066e-07
5.82686e-07
5.57889e-07
5.32246e-07
5.05803e-07
4.7861e-07
4.5072e-07
4.22198e-07
3.93112e-07
3.6354e-07
3.33567e-07
3.03287e-07
2.72805e-07
2.42235e-07
2.11703e-07
1.81347e-07
1.51317e-07
1.21774e-07
9.2893e-08
6.48603e-08
3.78728e-08
1.21361e-08
)
;

boundaryField
{
    fixedWall
    {
        type            zeroGradient;
    }
    outlet
    {
        type            inletOutlet;
        inletValue      uniform 0;
        value           uniform 0;
    }
    defaultFaces
    {
        type            empty;
    }
}


// ************************************************************************* //
