/*--------------------------------*- C++ -*----------------------------------*\
| =========                 |                                                 |
| \\      /  F ield         | OpenFOAM: The Open Source CFD Toolbox           |
|  \\    /   O peration     | Version:  2406                                  |
|   \\  /    A nd           | Website:  www.openfoam.com                      |
|    \\/     M anipulation  |                                                 |
\*---------------------------------------------------------------------------*/
FoamFile
{
    version     2.0;
    format      ascii;
    arch        "LSB;label=32;scalar=64";
    class       surfaceScalarField;
    location    "15";
    object      phi;
}
// * * * * * * * * * * * * * * * * * * * * * * * * * * * * * * * * * * * * * //

dimensions      [1 0 -1 0 0 0 0];

oriented        oriented;

internalField   nonuniform List<scalar> 
999
(
-9.95663e-09
-3.41151e-08
-6.78685e-08
-1.08249e-07
-1.53239e-07
-2.01451e-07
-2.51904e-07
-3.03887e-07
-3.5687e-07
-4.1047e-07
-4.64391e-07
-5.18409e-07
-5.72362e-07
-6.26109e-07
-6.79562e-07
-7.32634e-07
-7.85268e-07
-8.3742e-07
-8.89051e-07
-9.40138e-07
-9.9066e-07
-1.0406e-06
-1.08996e-06
-1.13871e-06
-1.18686e-06
-1.23442e-06
-1.28137e-06
-1.32772e-06
-1.37347e-06
-1.41862e-06
-1.46319e-06
-1.50717e-06
-1.55057e-06
-1.59339e-06
-1.63564e-06
-1.67733e-06
-1.71846e-06
-1.75904e-06
-1.79907e-06
-1.83856e-06
-1.87751e-06
-1.91594e-06
-1.95384e-06
-1.99122e-06
-2.02809e-06
-2.06446e-06
-2.10033e-06
-2.1357e-06
-2.17058e-06
-2.20498e-06
-2.2389e-06
-2.27235e-06
-2.30533e-06
-2.33784e-06
-2.3699e-06
-2.4015e-06
-2.43265e-06
-2.46336e-06
-2.49363e-06
-2.52347e-06
-2.55287e-06
-2.58185e-06
-2.6104e-06
-2.63854e-06
-2.66626e-06
-2.69358e-06
-2.72049e-06
-2.74699e-06
-2.7731e-06
-2.79882e-06
-2.82415e-06
-2.84909e-06
-2.87365e-06
-2.89783e-06
-2.92164e-06
-2.94508e-06
-2.96815e-06
-2.99085e-06
-3.0132e-06
-3.03519e-06
-3.05683e-06
-3.07813e-06
-3.09907e-06
-3.11968e-06
-3.13994e-06
-3.15987e-06
-3.17948e-06
-3.19875e-06
-3.2177e-06
-3.23633e-06
-3.25464e-06
-3.27263e-06
-3.29032e-06
-3.3077e-06
-3.32477e-06
-3.34155e-06
-3.35802e-06
-3.37421e-06
-3.3901e-06
-3.40571e-06
-3.42103e-06
-3.43607e-06
-3.45083e-06
-3.46532e-06
-3.47954e-06
-3.49349e-06
-3.50718e-06
-3.5206e-06
-3.53377e-06
-3.54668e-06
-3.55934e-06
-3.57176e-06
-3.58393e-06
-3.59585e-06
-3.60754e-06
-3.61899e-06
-3.63021e-06
-3.6412e-06
-3.65197e-06
-3.66251e-06
-3.67283e-06
-3.68294e-06
-3.69283e-06
-3.70251e-06
-3.71199e-06
-3.72126e-06
-3.73033e-06
-3.7392e-06
-3.74787e-06
-3.75635e-06
-3.76465e-06
-3.77276e-06
-3.78068e-06
-3.78843e-06
-3.79599e-06
-3.80338e-06
-3.8106e-06
-3.81766e-06
-3.82454e-06
-3.83126e-06
-3.83783e-06
-3.84423e-06
-3.85048e-06
-3.85658e-06
-3.86253e-06
-3.86833e-06
-3.87399e-06
-3.8795e-06
-3.88488e-06
-3.89013e-06
-3.89524e-06
-3.90022e-06
-3.90507e-06
-3.90979e-06
-3.91439e-06
-3.91888e-06
-3.92324e-06
-3.92748e-06
-3.93162e-06
-3.93564e-06
-3.93955e-06
-3.94336e-06
-3.94706e-06
-3.95066e-06
-3.95416e-06
-3.95756e-06
-3.96087e-06
-3.96408e-06
-3.96721e-06
-3.97024e-06
-3.97319e-06
-3.97605e-06
-3.97883e-06
-3.98152e-06
-3.98414e-06
-3.98668e-06
-3.98914e-06
-3.99154e-06
-3.99385e-06
-3.9961e-06
-3.99828e-06
-4.00039e-06
-4.00244e-06
-4.00442e-06
-4.00634e-06
-4.00819e-06
-4.00999e-06
-4.01174e-06
-4.01343e-06
-4.01507e-06
-4.01665e-06
-4.01819e-06
-4.01967e-06
-4.0211e-06
-4.02249e-06
-4.02383e-06
-4.02513e-06
-4.02638e-06
-4.02759e-06
-4.02876e-06
-4.02989e-06
-4.03098e-06
-4.03204e-06
-4.03306e-06
-4.03405e-06
-4.03499e-06
-4.0359e-06
-4.03678e-06
-4.03763e-06
-4.03844e-06
-4.03923e-06
-4.03999e-06
-4.04072e-06
-4.04143e-06
-4.04212e-06
-4.04278e-06
-4.04342e-06
-4.04403e-06
-4.04462e-06
-4.04519e-06
-4.04574e-06
-4.04626e-06
-4.04677e-06
-4.04726e-06
-4.04773e-06
-4.04817e-06
-4.04861e-06
-4.04903e-06
-4.04942e-06
-4.04981e-06
-4.05018e-06
-4.05053e-06
-4.05087e-06
-4.0512e-06
-4.05151e-06
-4.05181e-06
-4.0521e-06
-4.05238e-06
-4.05264e-06
-4.05289e-06
-4.05314e-06
-4.05337e-06
-4.05359e-06
-4.05381e-06
-4.05401e-06
-4.05421e-06
-4.0544e-06
-4.05458e-06
-4.05475e-06
-4.05492e-06
-4.05507e-06
-4.05523e-06
-4.05537e-06
-4.05551e-06
-4.05564e-06
-4.05576e-06
-4.05588e-06
-4.056e-06
-4.0561e-06
-4.05621e-06
-4.05631e-06
-4.0564e-06
-4.05649e-06
-4.05658e-06
-4.05666e-06
-4.05674e-06
-4.05681e-06
-4.05688e-06
-4.05695e-06
-4.05701e-06
-4.05708e-06
-4.05713e-06
-4.05719e-06
-4.05724e-06
-4.05729e-06
-4.05734e-06
-4.05738e-06
-4.05743e-06
-4.05747e-06
-4.0575e-06
-4.05754e-06
-4.05757e-06
-4.05761e-06
-4.05764e-06
-4.05766e-06
-4.05769e-06
-4.05772e-06
-4.05774e-06
-4.05777e-06
-4.05779e-06
-4.05781e-06
-4.05783e-06
-4.05784e-06
-4.05786e-06
-4.05788e-06
-4.05789e-06
-4.05791e-06
-4.05792e-06
-4.05793e-06
-4.05794e-06
-4.05795e-06
-4.05796e-06
-4.05797e-06
-4.05798e-06
-4.05799e-06
-4.058e-06
-4.058e-06
-4.05801e-06
-4.05802e-06
-4.05802e-06
-4.05803e-06
-4.05803e-06
-4.05803e-06
-4.05804e-06
-4.05804e-06
-4.05804e-06
-4.05805e-06
-4.05805e-06
-4.05805e-06
-4.05805e-06
-4.05806e-06
-4.05806e-06
-4.05806e-06
-4.05806e-06
-4.05806e-06
-4.05806e-06
-4.05806e-06
-4.05806e-06
-4.05806e-06
-4.05806e-06
-4.05806e-06
-4.05806e-06
-4.05806e-06
-4.05806e-06
-4.05806e-06
-4.05806e-06
-4.05806e-06
-4.05806e-06
-4.05806e-06
-4.05806e-06
-4.05806e-06
-4.05806e-06
-4.05806e-06
-4.05806e-06
-4.05806e-06
-4.05805e-06
-4.05805e-06
-4.05805e-06
-4.05805e-06
-4.05805e-06
-4.05805e-06
-4.05805e-06
-4.05805e-06
-4.05805e-06
-4.05805e-06
-4.05805e-06
-4.05805e-06
-4.05805e-06
-4.05804e-06
-4.05804e-06
-4.05804e-06
-4.05804e-06
-4.05804e-06
-4.05804e-06
-4.05804e-06
-4.05804e-06
-4.05804e-06
-4.05804e-06
-4.05804e-06
-4.05804e-06
-4.05804e-06
-4.05804e-06
-4.05804e-06
-4.05804e-06
-4.05804e-06
-4.05804e-06
-4.05804e-06
-4.05804e-06
-4.05804e-06
-4.05804e-06
-4.05804e-06
-4.05804e-06
-4.05804e-06
-4.05804e-06
-4.05803e-06
-4.05804e-06
-4.05804e-06
-4.05804e-06
-4.05804e-06
-4.05804e-06
-4.05804e-06
-4.05804e-06
-4.05804e-06
-4.05804e-06
-4.05804e-06
-4.05804e-06
-4.05804e-06
-4.05804e-06
-4.05804e-06
-4.05804e-06
-4.05804e-06
-4.05804e-06
-4.05804e-06
-4.05804e-06
-4.05804e-06
-4.05804e-06
-4.05804e-06
-4.05804e-06
-4.05804e-06
-4.05804e-06
-4.05804e-06
-4.05804e-06
-4.05804e-06
-4.05804e-06
-4.05804e-06
-4.05804e-06
-4.05804e-06
-4.05804e-06
-4.05804e-06
-4.05804e-06
-4.05804e-06
-4.05804e-06
-4.05804e-06
-4.05804e-06
-4.05804e-06
-4.05804e-06
-4.05804e-06
-4.05805e-06
-4.05805e-06
-4.05805e-06
-4.05805e-06
-4.05805e-06
-4.05805e-06
-4.05805e-06
-4.05805e-06
-4.05805e-06
-4.05805e-06
-4.05805e-06
-4.05805e-06
-4.05805e-06
-4.05805e-06
-4.05805e-06
-4.05805e-06
-4.05805e-06
-4.05805e-06
-4.05805e-06
-4.05805e-06
-4.05805e-06
-4.05805e-06
-4.05805e-06
-4.05806e-06
-4.05806e-06
-4.05806e-06
-4.05806e-06
-4.05806e-06
-4.05806e-06
-4.05806e-06
-4.05806e-06
-4.05806e-06
-4.05806e-06
-4.05806e-06
-4.05806e-06
-4.05806e-06
-4.05806e-06
-4.05806e-06
-4.05806e-06
-4.05806e-06
-4.05806e-06
-4.05806e-06
-4.05806e-06
-4.05806e-06
-4.05806e-06
-4.05806e-06
-4.05806e-06
-4.05806e-06
-4.05806e-06
-4.05806e-06
-4.05806e-06
-4.05806e-06
-4.05806e-06
-4.05806e-06
-4.05806e-06
-4.05806e-06
-4.05806e-06
-4.05806e-06
-4.05806e-06
-4.05806e-06
-4.05806e-06
-4.05806e-06
-4.05806e-06
-4.05806e-06
-4.05806e-06
-4.05806e-06
-4.05806e-06
-4.05806e-06
-4.05806e-06
-4.05806e-06
-4.05806e-06
-4.05806e-06
-4.05806e-06
-4.05806e-06
-4.05806e-06
-4.05806e-06
-4.05806e-06
-4.05806e-06
-4.05806e-06
-4.05806e-06
-4.05806e-06
-4.05806e-06
-4.05806e-06
-4.05806e-06
-4.05806e-06
-4.05806e-06
-4.05806e-06
-4.05806e-06
-4.05806e-06
-4.05805e-06
-4.05805e-06
-4.05805e-06
-4.05805e-06
-4.05805e-06
-4.05805e-06
-4.05805e-06
-4.05805e-06
-4.05805e-06
-4.05805e-06
-4.05805e-06
-4.05805e-06
-4.05805e-06
-4.05805e-06
-4.05805e-06
-4.05805e-06
-4.05805e-06
-4.05805e-06
-4.05805e-06
-4.05805e-06
-4.05805e-06
-4.05805e-06
-4.05805e-06
-4.05805e-06
-4.05805e-06
-4.05805e-06
-4.05805e-06
-4.05805e-06
-4.05805e-06
-4.05805e-06
-4.05805e-06
-4.05805e-06
-4.05805e-06
-4.05805e-06
-4.05804e-06
-4.05805e-06
-4.05805e-06
-4.05805e-06
-4.05805e-06
-4.05804e-06
-4.05804e-06
-4.05804e-06
-4.05804e-06
-4.05804e-06
-4.05804e-06
-4.05804e-06
-4.05804e-06
-4.05804e-06
-4.05804e-06
-4.05804e-06
-4.05804e-06
-4.05804e-06
-4.05804e-06
-4.05804e-06
-4.05804e-06
-4.05804e-06
-4.05804e-06
-4.05804e-06
-4.05804e-06
-4.05804e-06
-4.05804e-06
-4.05804e-06
-4.05804e-06
-4.05804e-06
-4.05804e-06
-4.05804e-06
-4.05804e-06
-4.05804e-06
-4.05804e-06
-4.05804e-06
-4.05804e-06
-4.05804e-06
-4.05804e-06
-4.05804e-06
-4.05804e-06
-4.05804e-06
-4.05804e-06
-4.05804e-06
-4.05803e-06
-4.05803e-06
-4.05803e-06
-4.05803e-06
-4.05803e-06
-4.05803e-06
-4.05803e-06
-4.05803e-06
-4.05803e-06
-4.05803e-06
-4.05803e-06
-4.05803e-06
-4.05803e-06
-4.05803e-06
-4.05803e-06
-4.05803e-06
-4.05803e-06
-4.05803e-06
-4.05803e-06
-4.05803e-06
-4.05803e-06
-4.05803e-06
-4.05803e-06
-4.05803e-06
-4.05803e-06
-4.05803e-06
-4.05803e-06
-4.05803e-06
-4.05803e-06
-4.05803e-06
-4.05803e-06
-4.05803e-06
-4.05803e-06
-4.05803e-06
-4.05803e-06
-4.05803e-06
-4.05803e-06
-4.05803e-06
-4.05803e-06
-4.05803e-06
-4.05803e-06
-4.05803e-06
-4.05803e-06
-4.05803e-06
-4.05803e-06
-4.05803e-06
-4.05803e-06
-4.05803e-06
-4.05803e-06
-4.05803e-06
-4.05803e-06
-4.05803e-06
-4.05802e-06
-4.05803e-06
-4.05803e-06
-4.05802e-06
-4.05803e-06
-4.05802e-06
-4.05802e-06
-4.05802e-06
-4.05802e-06
-4.05802e-06
-4.05802e-06
-4.05802e-06
-4.05802e-06
-4.05802e-06
-4.05802e-06
-4.05802e-06
-4.05802e-06
-4.05802e-06
-4.05802e-06
-4.05802e-06
-4.05802e-06
-4.05802e-06
-4.05802e-06
-4.05802e-06
-4.05802e-06
-4.05802e-06
-4.05802e-06
-4.05802e-06
-4.05802e-06
-4.05803e-06
-4.05803e-06
-4.05803e-06
-4.05803e-06
-4.05803e-06
-4.05803e-06
-4.05803e-06
-4.05804e-06
-4.05804e-06
-4.05804e-06
-4.05804e-06
-4.05804e-06
-4.05805e-06
-4.05805e-06
-4.05805e-06
-4.05806e-06
-4.05806e-06
-4.05806e-06
-4.05807e-06
-4.05807e-06
-4.05808e-06
-4.05809e-06
-4.05809e-06
-4.0581e-06
-4.05811e-06
-4.05811e-06
-4.05812e-06
-4.05813e-06
-4.05814e-06
-4.05815e-06
-4.05816e-06
-4.05817e-06
-4.05819e-06
-4.0582e-06
-4.05821e-06
-4.05823e-06
-4.05825e-06
-4.05826e-06
-4.05828e-06
-4.0583e-06
-4.05832e-06
-4.05835e-06
-4.05837e-06
-4.0584e-06
-4.05843e-06
-4.05846e-06
-4.05849e-06
-4.05852e-06
-4.05856e-06
-4.0586e-06
-4.05864e-06
-4.05868e-06
-4.05873e-06
-4.05878e-06
-4.05883e-06
-4.05889e-06
-4.05895e-06
-4.05901e-06
-4.05907e-06
-4.05914e-06
-4.05922e-06
-4.0593e-06
-4.05938e-06
-4.05947e-06
-4.05957e-06
-4.05967e-06
-4.05977e-06
-4.05989e-06
-4.06001e-06
-4.06014e-06
-4.06027e-06
-4.06041e-06
-4.06057e-06
-4.06072e-06
-4.06089e-06
-4.06107e-06
-4.06126e-06
-4.06146e-06
-4.06167e-06
-4.06189e-06
-4.06213e-06
-4.06238e-06
-4.06264e-06
-4.06292e-06
-4.06321e-06
-4.06352e-06
-4.06384e-06
-4.06419e-06
-4.06455e-06
-4.06493e-06
-4.06534e-06
-4.06576e-06
-4.06621e-06
-4.06668e-06
-4.06717e-06
-4.06769e-06
-4.06824e-06
-4.06882e-06
-4.06943e-06
-4.07006e-06
-4.07073e-06
-4.07144e-06
-4.07218e-06
-4.07295e-06
-4.07377e-06
-4.07463e-06
-4.07552e-06
-4.07647e-06
-4.07746e-06
-4.07849e-06
-4.07958e-06
-4.08072e-06
-4.08192e-06
-4.08317e-06
-4.08448e-06
-4.08585e-06
-4.08729e-06
-4.08879e-06
-4.09036e-06
-4.09201e-06
-4.09373e-06
-4.09553e-06
-4.09741e-06
-4.09937e-06
-4.10142e-06
-4.10356e-06
-4.1058e-06
-4.10813e-06
-4.11057e-06
-4.11311e-06
-4.11576e-06
-4.11853e-06
-4.12141e-06
-4.12441e-06
-4.12754e-06
-4.13079e-06
-4.13419e-06
-4.13772e-06
-4.14139e-06
-4.14522e-06
-4.1492e-06
-4.15333e-06
-4.15764e-06
-4.16211e-06
-4.16675e-06
-4.17158e-06
-4.17659e-06
-4.1818e-06
-4.1872e-06
-4.19281e-06
-4.19863e-06
-4.20466e-06
-4.21092e-06
-4.21741e-06
-4.22413e-06
-4.2311e-06
-4.23832e-06
-4.24579e-06
-4.25353e-06
-4.26154e-06
-4.26983e-06
-4.27841e-06
-4.28729e-06
-4.29646e-06
-4.30595e-06
-4.31575e-06
-4.32589e-06
-4.33635e-06
-4.34717e-06
-4.35833e-06
-4.36986e-06
-4.38175e-06
-4.39402e-06
-4.40668e-06
-4.41974e-06
-4.43321e-06
-4.44709e-06
-4.46139e-06
-4.47613e-06
-4.49131e-06
-4.50695e-06
-4.52305e-06
-4.53962e-06
-4.55668e-06
-4.57423e-06
-4.59229e-06
-4.61086e-06
-4.62995e-06
-4.64959e-06
-4.66976e-06
-4.6905e-06
-4.71179e-06
-4.73368e-06
-4.75614e-06
-4.77921e-06
-4.80289e-06
-4.82719e-06
-4.85213e-06
-4.87771e-06
-4.90395e-06
-4.93085e-06
-4.95844e-06
-4.98671e-06
-5.01569e-06
-5.04538e-06
-5.0758e-06
-5.10695e-06
-5.13886e-06
-5.17153e-06
-5.20497e-06
-5.2392e-06
-5.27423e-06
-5.31007e-06
-5.34673e-06
-5.38422e-06
-5.42257e-06
-5.46177e-06
-5.50185e-06
-5.54282e-06
-5.58468e-06
-5.62745e-06
-5.67115e-06
-5.71579e-06
-5.76138e-06
-5.80793e-06
-5.85546e-06
-5.90398e-06
-5.9535e-06
-6.00404e-06
-6.05562e-06
-6.10824e-06
-6.16191e-06
-6.21667e-06
-6.27251e-06
-6.32946e-06
-6.38753e-06
-6.44672e-06
-6.50707e-06
-6.56858e-06
-6.63127e-06
-6.69515e-06
-6.76024e-06
-6.82656e-06
-6.89413e-06
-6.96295e-06
-7.03305e-06
-7.10445e-06
-7.17715e-06
-7.25119e-06
-7.32658e-06
-7.40334e-06
-7.48148e-06
-7.56102e-06
-7.642e-06
-7.72442e-06
-7.80831e-06
-7.89369e-06
-7.98059e-06
-8.06902e-06
-8.15901e-06
-8.25058e-06
-8.34377e-06
-8.43859e-06
-8.53507e-06
-8.63324e-06
-8.73313e-06
-8.83477e-06
-8.93819e-06
-9.04343e-06
-9.15052e-06
-9.2595e-06
-9.37041e-06
-9.4833e-06
-9.5982e-06
-9.71517e-06
-9.83427e-06
-9.95555e-06
-1.00791e-05
-1.02049e-05
-1.03315e-05
-1.04604e-05
-1.05918e-05
-1.07256e-05
-1.08619e-05
-1.10007e-05
-1.11422e-05
-1.12862e-05
-1.14328e-05
-1.15821e-05
-1.17341e-05
-1.18888e-05
-1.20463e-05
-1.22066e-05
-1.23697e-05
-1.25356e-05
-1.27044e-05
-1.28761e-05
-1.30505e-05
-1.32279e-05
-1.34079e-05
-1.35908e-05
-1.37762e-05
-1.39642e-05
-1.41546e-05
-1.43471e-05
-1.45416e-05
-1.47377e-05
-1.49352e-05
-1.51335e-05
-1.53321e-05
-1.55304e-05
-1.57277e-05
-1.5923e-05
-1.61152e-05
-1.63032e-05
-1.64854e-05
-1.66603e-05
-1.68257e-05
-1.69795e-05
-1.71191e-05
-1.72415e-05
-1.73435e-05
-1.74214e-05
-1.74713e-05
)
;

boundaryField
{
    fixedWall
    {
        type            calculated;
        value           uniform 0;
    }
    outlet
    {
        type            calculated;
        value           uniform -1.74888e-05;
    }
    defaultFaces
    {
        type            empty;
    }
}


// ************************************************************************* //
