/*--------------------------------*- C++ -*----------------------------------*\
| =========                 |                                                 |
| \\      /  F ield         | OpenFOAM: The Open Source CFD Toolbox           |
|  \\    /   O peration     | Version:  2406                                  |
|   \\  /    A nd           | Website:  www.openfoam.com                      |
|    \\/     M anipulation  |                                                 |
\*---------------------------------------------------------------------------*/
FoamFile
{
    version     2.0;
    format      ascii;
    arch        "LSB;label=32;scalar=64";
    class       volScalarField;
    location    "15";
    object      Qdot;
}
// * * * * * * * * * * * * * * * * * * * * * * * * * * * * * * * * * * * * * //

dimensions      [1 -1 -3 0 0 0 0];

internalField   nonuniform List<scalar> 
1000
(
-6.14856e-19
-9.50232e-18
-9.56939e-17
-6.68963e-16
3.80443e-09
1.14133e-08
2.66309e-08
7.33445e-08
2.10315e-07
5.16997e-07
1.17597e-06
2.44675e-06
4.78575e-06
8.83412e-06
1.55112e-05
2.60615e-05
4.20963e-05
6.5632e-05
9.91341e-05
0.000145511
0.000208113
0.00029071
0.000397428
0.000532708
0.000701209
0.000907715
0.00115704
0.00145392
0.00180288
0.00220817
0.00267359
0.00320246
0.00379751
0.00446079
0.00519362
0.00599656
0.00686939
0.00781107
0.00881976
0.00989286
0.011027
0.0122182
0.0134618
0.0147525
0.0160847
0.0174522
0.0188487
0.0202674
0.0217017
0.0231446
0.0245893
0.0260292
0.0274577
0.0288684
0.0302555
0.0316132
0.0329363
0.03422
0.0354597
0.0366517
0.0377926
0.0388792
0.0399092
0.0408807
0.041792
0.0426422
0.0434305
0.0441567
0.0448211
0.0454241
0.0459665
0.0464494
0.0468743
0.0472427
0.0475564
0.0478175
0.048028
0.0481902
0.0483065
0.0483793
0.0484109
0.0484039
0.0483608
0.0482841
0.0481761
0.0480393
0.047876
0.0476886
0.0474793
0.0472502
0.0470034
0.0467409
0.0464645
0.0461762
0.0458775
0.0455701
0.0452555
0.0449352
0.0446104
0.0442825
0.0439525
0.0436216
0.0432906
0.0429606
0.0426324
0.0423067
0.0419842
0.0416655
0.0413511
0.0410417
0.0407376
0.0404392
0.0401468
0.0398607
0.0395813
0.0393087
0.039043
0.0387845
0.0385332
0.0382892
0.0380526
0.0378233
0.0376015
0.037387
0.0371799
0.0369801
0.0367875
0.0366021
0.0364238
0.0362524
0.036088
0.0359302
0.0357791
0.0356345
0.0354962
0.0353642
0.0352382
0.0351182
0.0350039
0.0348953
0.0347921
0.0346943
0.0346017
0.0345141
0.0344314
0.0343534
0.03428
0.034211
0.0341463
0.0340858
0.0340292
0.0339766
0.0339277
0.0338824
0.0338405
0.033802
0.0337668
0.0337346
0.0337054
0.0336791
0.0336556
0.0336347
0.0336164
0.0336005
0.0335869
0.0335756
0.0335665
0.0335594
0.0335543
0.0335511
0.0335497
0.03355
0.033552
0.0335555
0.0335606
0.0335671
0.033575
0.0335843
0.0335947
0.0336064
0.0336192
0.0336331
0.033648
0.0336639
0.0336808
0.0336985
0.0337171
0.0337365
0.0337567
0.0337776
0.0337991
0.0338214
0.0338442
0.0338676
0.0338916
0.0339161
0.0339411
0.0339667
0.0339926
0.0340189
0.0340456
0.0340728
0.0341004
0.0341283
0.0341565
0.0341849
0.0342137
0.0342428
0.0342722
0.0343018
0.0343316
0.0343616
0.0343917
0.0344222
0.0344529
0.0344837
0.0345146
0.0345457
0.034577
0.0346084
0.03464
0.0346716
0.0347034
0.0347353
0.0347672
0.0347993
0.0348315
0.0348638
0.0348961
0.0349285
0.034961
0.0349936
0.0350262
0.035059
0.0350917
0.0351246
0.0351575
0.0351904
0.0352234
0.0352565
0.0352895
0.0353227
0.0353559
0.0353891
0.0354224
0.0354558
0.035489
0.0355223
0.0355558
0.0355893
0.0356228
0.0356562
0.0356898
0.0357234
0.0357569
0.0357906
0.0358244
0.0358581
0.0358919
0.0359257
0.0359595
0.0359934
0.0360273
0.0360612
0.0360952
0.0361292
0.0361632
0.0361973
0.0362313
0.0362655
0.0362996
0.0363338
0.036368
0.0364022
0.0364365
0.0364708
0.0365052
0.0365395
0.0365739
0.0366084
0.0366429
0.0366774
0.0367119
0.0367465
0.0367811
0.0368158
0.0368505
0.0368852
0.03692
0.0369547
0.0369895
0.0370244
0.0370593
0.0370943
0.0371293
0.0371643
0.0371994
0.0372344
0.0372696
0.0373047
0.03734
0.0373752
0.0374105
0.0374459
0.0374813
0.0375167
0.0375521
0.0375876
0.0376231
0.0376587
0.0376944
0.0377301
0.0377658
0.0378016
0.0378374
0.0378732
0.0379091
0.0379451
0.0379811
0.0380171
0.0380532
0.0380893
0.0381255
0.0381617
0.0381979
0.0382343
0.0382706
0.038307
0.0383435
0.03838
0.0384165
0.0384531
0.0384897
0.0385265
0.0385632
0.0386
0.0386369
0.0386736
0.0387106
0.0387476
0.0387847
0.0388217
0.0388589
0.0388961
0.0389333
0.0389707
0.039008
0.0390454
0.0390828
0.0391203
0.0391577
0.0391954
0.0392331
0.0392708
0.0393086
0.0393464
0.0393843
0.0394222
0.0394602
0.0394982
0.0395363
0.0395745
0.0396127
0.039651
0.0396893
0.0397276
0.0397661
0.0398046
0.0398431
0.0398817
0.0399203
0.0399591
0.0399978
0.0400366
0.0400755
0.0401144
0.0401534
0.0401924
0.0402315
0.0402706
0.0403098
0.0403491
0.0403884
0.0404278
0.0404672
0.0405068
0.0405463
0.040586
0.0406257
0.0406655
0.0407051
0.040745
0.0407848
0.0408248
0.0408649
0.040905
0.0409451
0.0409854
0.0410256
0.041066
0.0411064
0.0411468
0.0411873
0.0412279
0.0412685
0.0413092
0.04135
0.0413908
0.0414317
0.0414726
0.0415136
0.0415547
0.0415958
0.041637
0.0416782
0.0417195
0.0417609
0.0418023
0.0418438
0.0418853
0.041927
0.0419686
0.0420104
0.0420522
0.042094
0.042136
0.042178
0.04222
0.0422621
0.0423043
0.0423465
0.0423888
0.0424312
0.0424736
0.0425161
0.0425587
0.0426013
0.042644
0.0426867
0.0427296
0.0427723
0.0428153
0.0428583
0.0429014
0.0429445
0.0429877
0.043031
0.0430743
0.0431177
0.0431612
0.0432048
0.0432484
0.043292
0.0433358
0.0433796
0.0434233
0.0434673
0.0435113
0.0435553
0.0435995
0.0436436
0.0436879
0.0437322
0.0437766
0.0438211
0.0438657
0.0439103
0.0439549
0.0439997
0.0440445
0.0440894
0.0441343
0.0441793
0.0442244
0.0442695
0.0443148
0.0443601
0.0444054
0.0444509
0.0444964
0.044542
0.0445876
0.0446334
0.044679
0.0447249
0.0447709
0.0448167
0.0448628
0.0449089
0.0449551
0.0450014
0.0450478
0.0450942
0.0451407
0.0451873
0.0452339
0.0452806
0.0453274
0.0453742
0.0454212
0.0454681
0.0455152
0.0455623
0.0456095
0.0456568
0.0457042
0.0457516
0.0457991
0.0458467
0.0458944
0.0459421
0.0459899
0.0460378
0.0460858
0.0461338
0.0461819
0.0462301
0.0462782
0.0463266
0.046375
0.0464235
0.0464721
0.0465207
0.0465694
0.0466182
0.046667
0.046716
0.046765
0.046814
0.0468632
0.0469124
0.0469618
0.0470112
0.0470606
0.0471102
0.0471598
0.0472095
0.0472593
0.0473092
0.0473591
0.0474092
0.0474593
0.0475095
0.0475597
0.0476101
0.0476605
0.047711
0.0477616
0.0478122
0.047863
0.0479138
0.0479647
0.0480157
0.0480667
0.0481179
0.0481691
0.0482204
0.0482718
0.0483232
0.0483748
0.0484264
0.0484781
0.0485299
0.0485818
0.0486338
0.0486858
0.048738
0.0487902
0.0488425
0.0488949
0.0489473
0.0489999
0.0490525
0.0491052
0.0491581
0.0492109
0.0492639
0.049317
0.0493701
0.0494234
0.0494767
0.0495301
0.0495836
0.0496372
0.0496909
0.0497446
0.0497985
0.0498524
0.0499064
0.0499605
0.0500147
0.050069
0.0501234
0.0501778
0.0502324
0.050287
0.0503417
0.0503966
0.0504515
0.0505065
0.0505616
0.0506167
0.050672
0.0507274
0.0507828
0.0508384
0.050894
0.0509497
0.0510056
0.0510615
0.0511175
0.0511736
0.0512298
0.051286
0.0513424
0.0513989
0.0514554
0.0515121
0.0515688
0.0516257
0.0516826
0.0517397
0.0517968
0.051854
0.0519113
0.0519687
0.0520262
0.0520839
0.0521416
0.0521994
0.0522572
0.0523152
0.0523733
0.0524315
0.0524898
0.0525482
0.0526067
0.0526652
0.0527239
0.0527827
0.0528416
0.0529005
0.0529596
0.0530188
0.053078
0.0531374
0.0531969
0.0532565
0.0533162
0.0533759
0.0534358
0.0534958
0.0535559
0.0536161
0.0536762
0.0537363
0.0537968
0.0538574
0.053918
0.0539788
0.0540397
0.0541007
0.0541617
0.0542229
0.0542842
0.0543456
0.0544071
0.0544687
0.0545305
0.0545923
0.0546541
0.0547159
0.054778
0.0548402
0.0549025
0.0549649
0.0550274
0.05509
0.0551527
0.0552156
0.0552785
0.0553415
0.0554047
0.0554679
0.0555313
0.0555947
0.0556583
0.055722
0.0557858
0.0558497
0.0559136
0.0559777
0.056042
0.0561063
0.0561707
0.0562352
0.0562999
0.0563646
0.0564295
0.0564945
0.0565595
0.0566247
0.05669
0.0567554
0.0568209
0.0568866
0.0569523
0.0570182
0.0570841
0.0571502
0.0572163
0.0572826
0.057349
0.0574155
0.0574822
0.0575489
0.0576157
0.0576827
0.0577497
0.0578169
0.0578842
0.0579516
0.0580191
0.0580867
0.0581545
0.0582223
0.0582903
0.0583583
0.0584265
0.0584948
0.0585632
0.0586317
0.0587003
0.0587691
0.0588379
0.0589069
0.058976
0.0590451
0.0591145
0.0591839
0.0592534
0.059323
0.0593928
0.0594627
0.0595327
0.0596028
0.059673
0.0597433
0.0598138
0.0598844
0.0599551
0.0600259
0.0600969
0.060168
0.0602392
0.0603105
0.060382
0.0604536
0.0605254
0.0605973
0.0606693
0.0607416
0.0608139
0.0608864
0.0609591
0.061032
0.061105
0.0611783
0.0612517
0.0613254
0.0613992
0.0614733
0.0615476
0.0616222
0.061697
0.0617722
0.0618476
0.0619233
0.0619994
0.0620758
0.0621525
0.0622297
0.0623073
0.0623853
0.0624638
0.0625428
0.0626224
0.0627025
0.0627833
0.0628646
0.0629467
0.0630296
0.0631132
0.0631976
0.063283
0.0633693
0.0634567
0.0635451
0.0636347
0.0637256
0.0638177
0.0639113
0.0640064
0.0641031
0.0642015
0.0643017
0.0644039
0.0645081
0.0646144
0.0647232
0.0648343
0.0649482
0.0650647
0.0651843
0.065307
0.065433
0.0655625
0.0656958
0.065833
0.0659744
0.0661202
0.0662708
0.0664262
0.0665869
0.0667532
0.0669252
0.0671034
0.0672881
0.0674797
0.0676784
0.0678848
0.0680991
0.0683218
0.0685534
0.0687942
0.0690448
0.0693056
0.0695772
0.06986
0.0701546
0.0704616
0.0707815
0.0711149
0.0714625
0.0718249
0.0722028
0.0725968
0.0730076
0.0734359
0.0738826
0.0743482
0.0748337
0.0753397
0.0758672
0.0764168
0.0769895
0.0775861
0.0782074
0.0788543
0.0795277
0.0802285
0.0809574
0.0817155
0.0825036
0.0833225
0.084173
0.0850561
0.0859725
0.0869231
0.0879085
0.0889295
0.0899867
0.0910807
0.0922122
0.0933814
0.094589
0.095835
0.0971198
0.0984433
0.0998055
0.101206
0.102645
0.104121
0.105635
0.107184
0.108767
0.110384
0.112033
0.113711
0.115416
0.117145
0.118897
0.120666
0.12245
0.124244
0.126043
0.127844
0.129639
0.131422
0.133189
0.13493
0.13664
0.138308
0.139928
0.14149
0.142984
0.1444
0.145728
0.146956
0.148073
0.149068
0.149929
0.150644
0.151199
0.151584
0.151787
0.151794
0.151595
0.151179
0.150536
0.149655
0.148528
0.147149
0.14551
0.143606
0.141436
0.138997
0.136291
0.13332
0.130088
0.126605
0.122878
0.118921
0.114748
0.110376
0.105824
0.101114
0.0962697
0.0913163
0.086281
0.0811922
0.0760793
0.0709723
0.0659012
0.0608961
0.0559861
0.0511993
0.0465624
0.0420999
0.0378339
0.0337839
0.0299664
0.0263943
0.0230775
0.0200372
0.0172675
0.014735
0.0124617
0.0104399
0.00865946
0.00710751
0.00576926
0.0046283
0.00366711
0.00286751
0.00221116
0.00167994
0.00125638
0.000923976
0.000667483
0.000473088
0.000328552
0.000223262
0.000148223
9.59792e-05
6.05051e-05
3.70619e-05
2.20103e-05
1.26421e-05
7.00456e-06
3.73278e-06
1.90822e-06
9.3193e-07
4.33058e-07
1.91084e-07
7.99086e-08
3.0529e-08
1.08569e-08
3.41959e-09
1.21332e-09
3.44448e-10
-1.92517e-10
-9.97215e-14
-9.96896e-14
-1.31356e-18
5.33358e-11
-2.0961e-20
0
0
5.35911e-12
)
;

boundaryField
{
    fixedWall
    {
        type            calculated;
        value           uniform 0;
    }
    outlet
    {
        type            calculated;
        value           uniform 0;
    }
    defaultFaces
    {
        type            empty;
    }
}


// ************************************************************************* //
