/*--------------------------------*- C++ -*----------------------------------*\
| =========                 |                                                 |
| \\      /  F ield         | OpenFOAM: The Open Source CFD Toolbox           |
|  \\    /   O peration     | Version:  2406                                  |
|   \\  /    A nd           | Website:  www.openfoam.com                      |
|    \\/     M anipulation  |                                                 |
\*---------------------------------------------------------------------------*/
FoamFile
{
    version     2.0;
    format      ascii;
    arch        "LSB;label=32;scalar=64";
    class       volScalarField;
    location    "15";
    object      T;
}
// * * * * * * * * * * * * * * * * * * * * * * * * * * * * * * * * * * * * * //

dimensions      [0 0 0 1 0 0 0];

internalField   nonuniform List<scalar> 
1000
(
303.424
322.906
341.164
358.366
374.646
390.108
404.84
418.914
432.39
445.318
457.744
469.706
481.238
492.368
503.123
513.527
523.6
533.362
542.828
552.015
560.937
569.606
578.034
586.232
594.211
601.978
609.543
616.914
624.099
631.103
637.933
644.597
651.098
657.443
663.637
669.684
675.589
681.356
686.989
692.492
697.87
703.124
708.259
713.277
718.183
722.978
727.665
732.248
736.728
741.108
745.391
749.579
753.674
757.678
761.593
765.421
769.165
772.826
776.405
779.905
783.328
786.674
789.946
793.145
796.273
799.331
802.32
805.243
808.1
810.893
813.622
816.29
818.898
821.446
823.937
826.37
828.748
831.071
833.341
835.558
837.724
839.84
841.906
843.924
845.895
847.819
849.698
851.532
853.322
855.07
856.776
858.441
860.065
861.65
863.197
864.705
866.177
867.612
869.012
870.377
871.708
873.006
874.271
875.504
876.705
877.876
879.018
880.129
881.212
882.267
883.295
884.296
885.27
886.219
887.142
888.041
888.916
889.767
890.596
891.402
892.186
892.948
893.69
894.411
895.112
895.794
896.456
897.1
897.726
898.334
898.924
899.498
900.055
900.596
901.122
901.632
902.127
902.608
903.074
903.527
903.966
904.392
904.805
905.205
905.594
905.97
906.335
906.689
907.032
907.364
907.685
907.997
908.299
908.591
908.874
909.148
909.413
909.67
909.918
910.158
910.391
910.615
910.833
911.043
911.246
911.442
911.632
911.815
911.993
912.164
912.329
912.488
912.642
912.791
912.935
913.073
913.207
913.336
913.46
913.58
913.696
913.807
913.915
914.019
914.118
914.215
914.307
914.396
914.482
914.565
914.645
914.721
914.795
914.866
914.934
915
915.063
915.124
915.182
915.238
915.292
915.344
915.394
915.442
915.488
915.532
915.574
915.615
915.654
915.691
915.727
915.762
915.795
915.826
915.857
915.886
915.914
915.94
915.966
915.99
916.014
916.036
916.058
916.079
916.098
916.117
916.135
916.152
916.169
916.185
916.2
916.214
916.228
916.241
916.253
916.265
916.277
916.288
916.298
916.308
916.317
916.327
916.335
916.343
916.351
916.359
916.366
916.372
916.379
916.385
916.391
916.396
916.401
916.406
916.411
916.416
916.42
916.424
916.428
916.432
916.435
916.438
916.442
916.445
916.447
916.45
916.453
916.455
916.457
916.46
916.462
916.464
916.465
916.467
916.469
916.47
916.472
916.473
916.475
916.476
916.477
916.478
916.479
916.48
916.481
916.482
916.483
916.484
916.485
916.485
916.486
916.487
916.487
916.488
916.488
916.489
916.489
916.49
916.49
916.491
916.491
916.492
916.492
916.492
916.493
916.493
916.493
916.494
916.494
916.494
916.494
916.495
916.495
916.495
916.495
916.496
916.496
916.496
916.496
916.497
916.497
916.497
916.497
916.497
916.497
916.498
916.498
916.498
916.498
916.498
916.499
916.499
916.499
916.499
916.499
916.499
916.5
916.5
916.5
916.5
916.5
916.5
916.501
916.501
916.501
916.501
916.501
916.501
916.501
916.502
916.502
916.502
916.502
916.502
916.502
916.503
916.503
916.503
916.503
916.503
916.503
916.504
916.504
916.504
916.504
916.504
916.504
916.504
916.505
916.505
916.505
916.505
916.505
916.505
916.506
916.506
916.506
916.506
916.506
916.506
916.506
916.507
916.507
916.507
916.507
916.507
916.507
916.507
916.508
916.508
916.508
916.508
916.508
916.508
916.508
916.508
916.509
916.509
916.509
916.509
916.509
916.509
916.509
916.509
916.51
916.51
916.51
916.51
916.51
916.51
916.51
916.51
916.51
916.511
916.511
916.511
916.511
916.511
916.511
916.511
916.511
916.511
916.511
916.511
916.512
916.512
916.512
916.512
916.512
916.512
916.512
916.512
916.512
916.512
916.512
916.512
916.512
916.513
916.513
916.513
916.513
916.513
916.513
916.513
916.513
916.513
916.513
916.513
916.513
916.513
916.513
916.513
916.513
916.513
916.514
916.514
916.514
916.514
916.514
916.514
916.514
916.514
916.514
916.514
916.514
916.514
916.514
916.514
916.514
916.514
916.514
916.514
916.514
916.514
916.514
916.514
916.515
916.515
916.515
916.515
916.515
916.515
916.515
916.515
916.515
916.515
916.515
916.515
916.515
916.515
916.515
916.515
916.515
916.515
916.515
916.515
916.515
916.515
916.515
916.515
916.515
916.515
916.515
916.515
916.515
916.515
916.515
916.515
916.516
916.516
916.516
916.516
916.516
916.516
916.516
916.516
916.516
916.516
916.516
916.516
916.516
916.516
916.516
916.516
916.516
916.516
916.516
916.516
916.516
916.516
916.516
916.516
916.516
916.516
916.516
916.516
916.516
916.516
916.516
916.516
916.516
916.516
916.516
916.516
916.516
916.517
916.517
916.517
916.517
916.517
916.517
916.517
916.517
916.517
916.517
916.517
916.517
916.517
916.517
916.517
916.517
916.517
916.517
916.517
916.517
916.517
916.517
916.517
916.517
916.517
916.517
916.517
916.517
916.517
916.517
916.517
916.517
916.517
916.517
916.517
916.517
916.517
916.517
916.517
916.517
916.518
916.518
916.518
916.518
916.518
916.518
916.518
916.518
916.518
916.518
916.518
916.518
916.518
916.518
916.518
916.518
916.518
916.518
916.518
916.518
916.518
916.518
916.518
916.518
916.518
916.518
916.518
916.518
916.518
916.518
916.518
916.518
916.518
916.518
916.518
916.518
916.518
916.518
916.518
916.518
916.518
916.518
916.518
916.518
916.518
916.518
916.518
916.518
916.518
916.518
916.518
916.518
916.518
916.518
916.518
916.518
916.518
916.518
916.518
916.518
916.518
916.518
916.518
916.518
916.518
916.518
916.518
916.518
916.518
916.518
916.518
916.518
916.518
916.518
916.518
916.518
916.518
916.518
916.518
916.518
916.518
916.518
916.518
916.518
916.518
916.518
916.518
916.518
916.518
916.518
916.518
916.518
916.518
916.518
916.518
916.518
916.518
916.518
916.518
916.518
916.518
916.518
916.518
916.518
916.518
916.518
916.518
916.518
916.518
916.518
916.518
916.517
916.517
916.517
916.517
916.517
916.517
916.517
916.517
916.516
916.516
916.516
916.516
916.515
916.515
916.515
916.515
916.514
916.514
916.514
916.513
916.513
916.512
916.512
916.511
916.511
916.51
916.509
916.509
916.508
916.507
916.506
916.505
916.504
916.503
916.502
916.501
916.499
916.498
916.497
916.495
916.493
916.492
916.49
916.488
916.486
916.483
916.481
916.478
916.476
916.473
916.47
916.466
916.463
916.459
916.455
916.451
916.447
916.442
916.437
916.432
916.426
916.421
916.414
916.408
916.401
916.394
916.386
916.378
916.369
916.36
916.35
916.34
916.329
916.318
916.306
916.293
916.28
916.266
916.251
916.235
916.218
916.201
916.183
916.163
916.143
916.122
916.099
916.076
916.051
916.025
915.997
915.968
915.938
915.906
915.873
915.838
915.801
915.762
915.722
915.679
915.635
915.588
915.539
915.488
915.434
915.378
915.32
915.258
915.194
915.127
915.057
914.983
914.907
914.827
914.743
914.656
914.565
914.47
914.37
914.267
914.159
914.047
913.93
913.808
913.681
913.549
913.412
913.268
913.12
912.965
912.804
912.637
912.463
912.282
912.095
911.9
911.698
911.488
911.27
911.045
910.811
910.568
910.317
910.056
909.786
909.507
909.218
908.918
908.609
908.288
907.957
907.614
907.26
906.894
906.516
906.125
905.722
905.306
904.876
904.433
903.976
903.504
903.017
902.516
901.999
901.467
900.918
900.353
899.772
899.173
898.556
897.922
897.27
896.599
895.909
895.199
894.47
893.72
892.95
892.159
891.347
890.512
889.655
888.776
887.873
886.947
885.997
885.022
884.022
882.997
881.946
880.868
879.763
878.631
877.471
876.283
875.065
873.818
872.541
871.233
869.893
868.522
867.118
865.681
864.21
862.704
861.164
859.587
857.974
856.324
854.636
852.908
851.141
849.334
847.485
845.594
843.66
841.681
839.658
837.588
835.472
833.307
831.093
828.829
826.513
824.144
821.721
819.242
816.707
814.114
811.461
808.746
805.969
803.128
800.221
797.245
794.2
791.084
787.894
784.629
781.286
777.863
774.358
770.769
767.093
763.328
759.471
755.52
751.471
747.322
743.07
738.711
734.244
729.663
724.967
720.151
715.211
710.145
704.983
699.698
694.231
688.623
682.868
676.964
670.906
664.69
658.311
651.765
645.049
638.156
631.084
623.828
616.385
608.749
600.919
592.89
584.659
576.223
567.581
558.73
549.67
540.399
530.918
521.228
511.331
501.23
490.929
480.435
469.755
458.897
447.872
436.693
425.374
413.932
402.387
390.76
379.077
367.363
355.652
343.975
332.371
320.88
309.548
298.422
)
;

boundaryField
{
    fixedWall
    {
        type            fixedValue;
        value           uniform 293;
    }
    outlet
    {
        type            inletOutlet;
        inletValue      uniform 293;
        value           uniform 293;
    }
    defaultFaces
    {
        type            empty;
    }
}


// ************************************************************************* //
