/*--------------------------------*- C++ -*----------------------------------*\
| =========                 |                                                 |
| \\      /  F ield         | OpenFOAM: The Open Source CFD Toolbox           |
|  \\    /   O peration     | Version:  2406                                  |
|   \\  /    A nd           | Website:  www.openfoam.com                      |
|    \\/     M anipulation  |                                                 |
\*---------------------------------------------------------------------------*/
FoamFile
{
    version     2.0;
    format      ascii;
    arch        "LSB;label=32;scalar=64";
    class       volVectorField;
    location    "15";
    object      U;
}
// * * * * * * * * * * * * * * * * * * * * * * * * * * * * * * * * * * * * * //

dimensions      [0 1 -1 0 0 0 0];

internalField   nonuniform List<vector> 
1000
(
(-5.16782e-07 0 0)
(-2.51347e-06 0 0)
(-6.54175e-06 0 0)
(-1.21714e-05 0 0)
(-1.90714e-05 0 0)
(-2.70377e-05 0 0)
(-3.59267e-05 0 0)
(-4.56174e-05 0 0)
(-5.60064e-05 0 0)
(-6.70059e-05 0 0)
(-7.85413e-05 0 0)
(-9.05476e-05 0 0)
(-0.00010297 0 0)
(-0.000115758 0 0)
(-0.000128871 0 0)
(-0.000142269 0 0)
(-0.000155919 0 0)
(-0.000169791 0 0)
(-0.000183856 0 0)
(-0.000198091 0 0)
(-0.000212474 0 0)
(-0.000226983 0 0)
(-0.000241601 0 0)
(-0.000256308 0 0)
(-0.000271093 0 0)
(-0.000285937 0 0)
(-0.00030083 0 0)
(-0.000315758 0 0)
(-0.000330709 0 0)
(-0.000345674 0 0)
(-0.000360642 0 0)
(-0.000375604 0 0)
(-0.000390551 0 0)
(-0.000405476 0 0)
(-0.00042037 0 0)
(-0.000435226 0 0)
(-0.000450038 0 0)
(-0.000464799 0 0)
(-0.000479504 0 0)
(-0.000494146 0 0)
(-0.000508721 0 0)
(-0.000523223 0 0)
(-0.000537647 0 0)
(-0.000551989 0 0)
(-0.000566246 0 0)
(-0.000580412 0 0)
(-0.000594485 0 0)
(-0.000608461 0 0)
(-0.000622336 0 0)
(-0.000636107 0 0)
(-0.000649772 0 0)
(-0.000663328 0 0)
(-0.00067677 0 0)
(-0.000690099 0 0)
(-0.00070331 0 0)
(-0.000716403 0 0)
(-0.000729375 0 0)
(-0.000742223 0 0)
(-0.000754948 0 0)
(-0.000767545 0 0)
(-0.000780015 0 0)
(-0.000792355 0 0)
(-0.000804565 0 0)
(-0.000816643 0 0)
(-0.000828589 0 0)
(-0.000840399 0 0)
(-0.000852076 0 0)
(-0.000863616 0 0)
(-0.00087502 0 0)
(-0.000886287 0 0)
(-0.000897417 0 0)
(-0.000908408 0 0)
(-0.000919261 0 0)
(-0.000929975 0 0)
(-0.00094055 0 0)
(-0.000950985 0 0)
(-0.000961282 0 0)
(-0.000971438 0 0)
(-0.000981457 0 0)
(-0.000991335 0 0)
(-0.00100107 0 0)
(-0.00101067 0 0)
(-0.00102014 0 0)
(-0.00102946 0 0)
(-0.00103864 0 0)
(-0.00104769 0 0)
(-0.0010566 0 0)
(-0.00106537 0 0)
(-0.00107401 0 0)
(-0.00108251 0 0)
(-0.00109088 0 0)
(-0.00109911 0 0)
(-0.00110721 0 0)
(-0.00111518 0 0)
(-0.00112302 0 0)
(-0.00113072 0 0)
(-0.00113829 0 0)
(-0.00114574 0 0)
(-0.00115305 0 0)
(-0.00116024 0 0)
(-0.0011673 0 0)
(-0.00117424 0 0)
(-0.00118105 0 0)
(-0.00118774 0 0)
(-0.00119431 0 0)
(-0.00120075 0 0)
(-0.00120708 0 0)
(-0.00121329 0 0)
(-0.00121938 0 0)
(-0.00122535 0 0)
(-0.00123121 0 0)
(-0.00123695 0 0)
(-0.00124258 0 0)
(-0.0012481 0 0)
(-0.00125351 0 0)
(-0.00125881 0 0)
(-0.001264 0 0)
(-0.00126909 0 0)
(-0.00127407 0 0)
(-0.00127895 0 0)
(-0.00128373 0 0)
(-0.0012884 0 0)
(-0.00129298 0 0)
(-0.00129745 0 0)
(-0.00130184 0 0)
(-0.00130612 0 0)
(-0.00131031 0 0)
(-0.00131441 0 0)
(-0.00131841 0 0)
(-0.00132233 0 0)
(-0.00132616 0 0)
(-0.0013299 0 0)
(-0.00133355 0 0)
(-0.00133712 0 0)
(-0.00134061 0 0)
(-0.00134401 0 0)
(-0.00134733 0 0)
(-0.00135058 0 0)
(-0.00135375 0 0)
(-0.00135683 0 0)
(-0.00135985 0 0)
(-0.00136279 0 0)
(-0.00136566 0 0)
(-0.00136845 0 0)
(-0.00137118 0 0)
(-0.00137384 0 0)
(-0.00137643 0 0)
(-0.00137896 0 0)
(-0.00138142 0 0)
(-0.00138381 0 0)
(-0.00138615 0 0)
(-0.00138842 0 0)
(-0.00139063 0 0)
(-0.00139278 0 0)
(-0.00139488 0 0)
(-0.00139692 0 0)
(-0.00139891 0 0)
(-0.00140084 0 0)
(-0.00140271 0 0)
(-0.00140454 0 0)
(-0.00140632 0 0)
(-0.00140804 0 0)
(-0.00140972 0 0)
(-0.00141135 0 0)
(-0.00141293 0 0)
(-0.00141447 0 0)
(-0.00141596 0 0)
(-0.00141741 0 0)
(-0.00141882 0 0)
(-0.00142019 0 0)
(-0.00142152 0 0)
(-0.00142281 0 0)
(-0.00142406 0 0)
(-0.00142527 0 0)
(-0.00142644 0 0)
(-0.00142758 0 0)
(-0.00142869 0 0)
(-0.00142976 0 0)
(-0.0014308 0 0)
(-0.0014318 0 0)
(-0.00143278 0 0)
(-0.00143372 0 0)
(-0.00143464 0 0)
(-0.00143552 0 0)
(-0.00143638 0 0)
(-0.0014372 0 0)
(-0.001438 0 0)
(-0.00143878 0 0)
(-0.00143953 0 0)
(-0.00144026 0 0)
(-0.00144096 0 0)
(-0.00144164 0 0)
(-0.0014423 0 0)
(-0.00144294 0 0)
(-0.00144355 0 0)
(-0.00144414 0 0)
(-0.00144472 0 0)
(-0.00144527 0 0)
(-0.0014458 0 0)
(-0.00144632 0 0)
(-0.00144682 0 0)
(-0.0014473 0 0)
(-0.00144776 0 0)
(-0.00144821 0 0)
(-0.00144864 0 0)
(-0.00144906 0 0)
(-0.00144946 0 0)
(-0.00144985 0 0)
(-0.00145022 0 0)
(-0.00145058 0 0)
(-0.00145092 0 0)
(-0.00145125 0 0)
(-0.00145157 0 0)
(-0.00145188 0 0)
(-0.00145218 0 0)
(-0.00145247 0 0)
(-0.00145275 0 0)
(-0.00145301 0 0)
(-0.00145327 0 0)
(-0.00145352 0 0)
(-0.00145376 0 0)
(-0.00145399 0 0)
(-0.0014542 0 0)
(-0.00145442 0 0)
(-0.00145462 0 0)
(-0.00145481 0 0)
(-0.001455 0 0)
(-0.00145518 0 0)
(-0.00145535 0 0)
(-0.00145552 0 0)
(-0.00145568 0 0)
(-0.00145583 0 0)
(-0.00145598 0 0)
(-0.00145612 0 0)
(-0.00145625 0 0)
(-0.00145638 0 0)
(-0.00145651 0 0)
(-0.00145662 0 0)
(-0.00145674 0 0)
(-0.00145685 0 0)
(-0.00145695 0 0)
(-0.00145705 0 0)
(-0.00145715 0 0)
(-0.00145724 0 0)
(-0.00145733 0 0)
(-0.00145741 0 0)
(-0.00145749 0 0)
(-0.00145757 0 0)
(-0.00145764 0 0)
(-0.00145771 0 0)
(-0.00145778 0 0)
(-0.00145784 0 0)
(-0.00145791 0 0)
(-0.00145796 0 0)
(-0.00145802 0 0)
(-0.00145807 0 0)
(-0.00145812 0 0)
(-0.00145817 0 0)
(-0.00145822 0 0)
(-0.00145826 0 0)
(-0.0014583 0 0)
(-0.00145834 0 0)
(-0.00145838 0 0)
(-0.00145842 0 0)
(-0.00145845 0 0)
(-0.00145849 0 0)
(-0.00145852 0 0)
(-0.00145855 0 0)
(-0.00145858 0 0)
(-0.0014586 0 0)
(-0.00145863 0 0)
(-0.00145865 0 0)
(-0.00145868 0 0)
(-0.0014587 0 0)
(-0.00145872 0 0)
(-0.00145874 0 0)
(-0.00145876 0 0)
(-0.00145878 0 0)
(-0.00145879 0 0)
(-0.00145881 0 0)
(-0.00145882 0 0)
(-0.00145884 0 0)
(-0.00145885 0 0)
(-0.00145887 0 0)
(-0.00145888 0 0)
(-0.00145889 0 0)
(-0.0014589 0 0)
(-0.00145891 0 0)
(-0.00145892 0 0)
(-0.00145893 0 0)
(-0.00145894 0 0)
(-0.00145895 0 0)
(-0.00145895 0 0)
(-0.00145896 0 0)
(-0.00145897 0 0)
(-0.00145897 0 0)
(-0.00145898 0 0)
(-0.00145899 0 0)
(-0.00145899 0 0)
(-0.001459 0 0)
(-0.001459 0 0)
(-0.00145901 0 0)
(-0.00145901 0 0)
(-0.00145901 0 0)
(-0.00145902 0 0)
(-0.00145902 0 0)
(-0.00145902 0 0)
(-0.00145903 0 0)
(-0.00145903 0 0)
(-0.00145903 0 0)
(-0.00145903 0 0)
(-0.00145903 0 0)
(-0.00145904 0 0)
(-0.00145904 0 0)
(-0.00145904 0 0)
(-0.00145904 0 0)
(-0.00145904 0 0)
(-0.00145904 0 0)
(-0.00145905 0 0)
(-0.00145905 0 0)
(-0.00145905 0 0)
(-0.00145905 0 0)
(-0.00145905 0 0)
(-0.00145905 0 0)
(-0.00145905 0 0)
(-0.00145905 0 0)
(-0.00145905 0 0)
(-0.00145905 0 0)
(-0.00145905 0 0)
(-0.00145905 0 0)
(-0.00145905 0 0)
(-0.00145905 0 0)
(-0.00145905 0 0)
(-0.00145905 0 0)
(-0.00145905 0 0)
(-0.00145905 0 0)
(-0.00145905 0 0)
(-0.00145905 0 0)
(-0.00145905 0 0)
(-0.00145905 0 0)
(-0.00145905 0 0)
(-0.00145905 0 0)
(-0.00145905 0 0)
(-0.00145905 0 0)
(-0.00145905 0 0)
(-0.00145905 0 0)
(-0.00145905 0 0)
(-0.00145905 0 0)
(-0.00145906 0 0)
(-0.00145905 0 0)
(-0.00145905 0 0)
(-0.00145905 0 0)
(-0.00145905 0 0)
(-0.00145906 0 0)
(-0.00145905 0 0)
(-0.00145905 0 0)
(-0.00145906 0 0)
(-0.00145905 0 0)
(-0.00145905 0 0)
(-0.00145905 0 0)
(-0.00145905 0 0)
(-0.00145905 0 0)
(-0.00145905 0 0)
(-0.00145905 0 0)
(-0.00145905 0 0)
(-0.00145905 0 0)
(-0.00145905 0 0)
(-0.00145905 0 0)
(-0.00145905 0 0)
(-0.00145905 0 0)
(-0.00145905 0 0)
(-0.00145905 0 0)
(-0.00145905 0 0)
(-0.00145905 0 0)
(-0.00145906 0 0)
(-0.00145906 0 0)
(-0.00145906 0 0)
(-0.00145906 0 0)
(-0.00145906 0 0)
(-0.00145906 0 0)
(-0.00145906 0 0)
(-0.00145906 0 0)
(-0.00145906 0 0)
(-0.00145906 0 0)
(-0.00145906 0 0)
(-0.00145906 0 0)
(-0.00145906 0 0)
(-0.00145906 0 0)
(-0.00145906 0 0)
(-0.00145906 0 0)
(-0.00145906 0 0)
(-0.00145906 0 0)
(-0.00145906 0 0)
(-0.00145906 0 0)
(-0.00145906 0 0)
(-0.00145906 0 0)
(-0.00145906 0 0)
(-0.00145906 0 0)
(-0.00145906 0 0)
(-0.00145906 0 0)
(-0.00145906 0 0)
(-0.00145906 0 0)
(-0.00145906 0 0)
(-0.00145906 0 0)
(-0.00145906 0 0)
(-0.00145906 0 0)
(-0.00145906 0 0)
(-0.00145906 0 0)
(-0.00145906 0 0)
(-0.00145906 0 0)
(-0.00145906 0 0)
(-0.00145906 0 0)
(-0.00145906 0 0)
(-0.00145906 0 0)
(-0.00145906 0 0)
(-0.00145906 0 0)
(-0.00145906 0 0)
(-0.00145906 0 0)
(-0.00145907 0 0)
(-0.00145907 0 0)
(-0.00145907 0 0)
(-0.00145907 0 0)
(-0.00145907 0 0)
(-0.00145907 0 0)
(-0.00145907 0 0)
(-0.00145907 0 0)
(-0.00145907 0 0)
(-0.00145907 0 0)
(-0.00145907 0 0)
(-0.00145907 0 0)
(-0.00145907 0 0)
(-0.00145907 0 0)
(-0.00145907 0 0)
(-0.00145907 0 0)
(-0.00145907 0 0)
(-0.00145907 0 0)
(-0.00145907 0 0)
(-0.00145907 0 0)
(-0.00145907 0 0)
(-0.00145907 0 0)
(-0.00145907 0 0)
(-0.00145907 0 0)
(-0.00145907 0 0)
(-0.00145907 0 0)
(-0.00145907 0 0)
(-0.00145907 0 0)
(-0.00145907 0 0)
(-0.00145907 0 0)
(-0.00145907 0 0)
(-0.00145907 0 0)
(-0.00145907 0 0)
(-0.00145907 0 0)
(-0.00145907 0 0)
(-0.00145908 0 0)
(-0.00145907 0 0)
(-0.00145908 0 0)
(-0.00145908 0 0)
(-0.00145908 0 0)
(-0.00145908 0 0)
(-0.00145908 0 0)
(-0.00145908 0 0)
(-0.00145908 0 0)
(-0.00145908 0 0)
(-0.00145908 0 0)
(-0.00145908 0 0)
(-0.00145908 0 0)
(-0.00145908 0 0)
(-0.00145908 0 0)
(-0.00145908 0 0)
(-0.00145908 0 0)
(-0.00145908 0 0)
(-0.00145908 0 0)
(-0.00145908 0 0)
(-0.00145908 0 0)
(-0.00145908 0 0)
(-0.00145908 0 0)
(-0.00145908 0 0)
(-0.00145908 0 0)
(-0.00145908 0 0)
(-0.00145908 0 0)
(-0.00145908 0 0)
(-0.00145908 0 0)
(-0.00145908 0 0)
(-0.00145908 0 0)
(-0.00145908 0 0)
(-0.00145908 0 0)
(-0.00145908 0 0)
(-0.00145908 0 0)
(-0.00145908 0 0)
(-0.00145908 0 0)
(-0.00145908 0 0)
(-0.00145908 0 0)
(-0.00145908 0 0)
(-0.00145908 0 0)
(-0.00145908 0 0)
(-0.00145908 0 0)
(-0.00145908 0 0)
(-0.00145908 0 0)
(-0.00145908 0 0)
(-0.00145908 0 0)
(-0.00145908 0 0)
(-0.00145908 0 0)
(-0.00145908 0 0)
(-0.00145908 0 0)
(-0.00145908 0 0)
(-0.00145908 0 0)
(-0.00145908 0 0)
(-0.00145908 0 0)
(-0.00145908 0 0)
(-0.00145908 0 0)
(-0.00145908 0 0)
(-0.00145908 0 0)
(-0.00145908 0 0)
(-0.00145908 0 0)
(-0.00145908 0 0)
(-0.00145908 0 0)
(-0.00145908 0 0)
(-0.00145908 0 0)
(-0.00145908 0 0)
(-0.00145908 0 0)
(-0.00145908 0 0)
(-0.00145908 0 0)
(-0.00145908 0 0)
(-0.00145908 0 0)
(-0.00145908 0 0)
(-0.00145908 0 0)
(-0.00145908 0 0)
(-0.00145908 0 0)
(-0.00145908 0 0)
(-0.00145908 0 0)
(-0.00145908 0 0)
(-0.00145908 0 0)
(-0.00145908 0 0)
(-0.00145908 0 0)
(-0.00145908 0 0)
(-0.00145908 0 0)
(-0.00145908 0 0)
(-0.00145908 0 0)
(-0.00145908 0 0)
(-0.00145908 0 0)
(-0.00145908 0 0)
(-0.00145908 0 0)
(-0.00145908 0 0)
(-0.00145908 0 0)
(-0.00145908 0 0)
(-0.00145908 0 0)
(-0.00145908 0 0)
(-0.00145908 0 0)
(-0.00145908 0 0)
(-0.00145908 0 0)
(-0.00145908 0 0)
(-0.00145907 0 0)
(-0.00145908 0 0)
(-0.00145908 0 0)
(-0.00145908 0 0)
(-0.00145908 0 0)
(-0.00145908 0 0)
(-0.00145908 0 0)
(-0.00145907 0 0)
(-0.00145908 0 0)
(-0.00145907 0 0)
(-0.00145908 0 0)
(-0.00145908 0 0)
(-0.00145907 0 0)
(-0.00145908 0 0)
(-0.00145907 0 0)
(-0.00145908 0 0)
(-0.00145907 0 0)
(-0.00145908 0 0)
(-0.00145907 0 0)
(-0.00145908 0 0)
(-0.00145907 0 0)
(-0.00145907 0 0)
(-0.00145907 0 0)
(-0.00145907 0 0)
(-0.00145907 0 0)
(-0.00145907 0 0)
(-0.00145907 0 0)
(-0.00145907 0 0)
(-0.00145908 0 0)
(-0.00145907 0 0)
(-0.00145907 0 0)
(-0.00145907 0 0)
(-0.00145907 0 0)
(-0.00145908 0 0)
(-0.00145907 0 0)
(-0.00145907 0 0)
(-0.00145907 0 0)
(-0.00145907 0 0)
(-0.00145908 0 0)
(-0.00145907 0 0)
(-0.00145907 0 0)
(-0.00145907 0 0)
(-0.00145907 0 0)
(-0.00145907 0 0)
(-0.00145907 0 0)
(-0.00145907 0 0)
(-0.00145907 0 0)
(-0.00145907 0 0)
(-0.00145907 0 0)
(-0.00145907 0 0)
(-0.00145907 0 0)
(-0.00145907 0 0)
(-0.00145907 0 0)
(-0.00145907 0 0)
(-0.00145907 0 0)
(-0.00145907 0 0)
(-0.00145907 0 0)
(-0.00145907 0 0)
(-0.00145907 0 0)
(-0.00145907 0 0)
(-0.00145907 0 0)
(-0.00145907 0 0)
(-0.00145907 0 0)
(-0.00145907 0 0)
(-0.00145907 0 0)
(-0.00145907 0 0)
(-0.00145907 0 0)
(-0.00145907 0 0)
(-0.00145907 0 0)
(-0.00145907 0 0)
(-0.00145907 0 0)
(-0.00145907 0 0)
(-0.00145907 0 0)
(-0.00145907 0 0)
(-0.00145907 0 0)
(-0.00145907 0 0)
(-0.00145907 0 0)
(-0.00145907 0 0)
(-0.00145907 0 0)
(-0.00145907 0 0)
(-0.00145907 0 0)
(-0.00145907 0 0)
(-0.00145907 0 0)
(-0.00145907 0 0)
(-0.00145907 0 0)
(-0.00145907 0 0)
(-0.00145907 0 0)
(-0.00145907 0 0)
(-0.00145907 0 0)
(-0.00145907 0 0)
(-0.00145907 0 0)
(-0.00145907 0 0)
(-0.00145907 0 0)
(-0.00145907 0 0)
(-0.00145907 0 0)
(-0.00145907 0 0)
(-0.00145907 0 0)
(-0.00145907 0 0)
(-0.00145907 0 0)
(-0.00145907 0 0)
(-0.00145907 0 0)
(-0.00145907 0 0)
(-0.00145907 0 0)
(-0.00145907 0 0)
(-0.00145907 0 0)
(-0.00145907 0 0)
(-0.00145907 0 0)
(-0.00145907 0 0)
(-0.00145907 0 0)
(-0.00145907 0 0)
(-0.00145907 0 0)
(-0.00145907 0 0)
(-0.00145907 0 0)
(-0.00145907 0 0)
(-0.00145907 0 0)
(-0.00145907 0 0)
(-0.00145907 0 0)
(-0.00145907 0 0)
(-0.00145907 0 0)
(-0.00145907 0 0)
(-0.00145907 0 0)
(-0.00145907 0 0)
(-0.00145907 0 0)
(-0.00145907 0 0)
(-0.00145907 0 0)
(-0.00145907 0 0)
(-0.00145907 0 0)
(-0.00145907 0 0)
(-0.00145907 0 0)
(-0.00145907 0 0)
(-0.00145907 0 0)
(-0.00145907 0 0)
(-0.00145908 0 0)
(-0.00145908 0 0)
(-0.00145908 0 0)
(-0.00145908 0 0)
(-0.00145908 0 0)
(-0.00145908 0 0)
(-0.00145908 0 0)
(-0.00145908 0 0)
(-0.00145908 0 0)
(-0.00145908 0 0)
(-0.00145909 0 0)
(-0.00145909 0 0)
(-0.00145909 0 0)
(-0.00145909 0 0)
(-0.00145909 0 0)
(-0.00145909 0 0)
(-0.0014591 0 0)
(-0.0014591 0 0)
(-0.0014591 0 0)
(-0.0014591 0 0)
(-0.00145911 0 0)
(-0.00145911 0 0)
(-0.00145911 0 0)
(-0.00145912 0 0)
(-0.00145912 0 0)
(-0.00145913 0 0)
(-0.00145913 0 0)
(-0.00145914 0 0)
(-0.00145914 0 0)
(-0.00145915 0 0)
(-0.00145915 0 0)
(-0.00145916 0 0)
(-0.00145917 0 0)
(-0.00145917 0 0)
(-0.00145918 0 0)
(-0.00145919 0 0)
(-0.0014592 0 0)
(-0.00145921 0 0)
(-0.00145922 0 0)
(-0.00145923 0 0)
(-0.00145924 0 0)
(-0.00145925 0 0)
(-0.00145927 0 0)
(-0.00145928 0 0)
(-0.00145929 0 0)
(-0.00145931 0 0)
(-0.00145933 0 0)
(-0.00145934 0 0)
(-0.00145936 0 0)
(-0.00145938 0 0)
(-0.0014594 0 0)
(-0.00145943 0 0)
(-0.00145945 0 0)
(-0.00145947 0 0)
(-0.0014595 0 0)
(-0.00145953 0 0)
(-0.00145956 0 0)
(-0.00145959 0 0)
(-0.00145962 0 0)
(-0.00145966 0 0)
(-0.0014597 0 0)
(-0.00145974 0 0)
(-0.00145978 0 0)
(-0.00145982 0 0)
(-0.00145987 0 0)
(-0.00145992 0 0)
(-0.00145997 0 0)
(-0.00146003 0 0)
(-0.00146009 0 0)
(-0.00146015 0 0)
(-0.00146022 0 0)
(-0.00146029 0 0)
(-0.00146036 0 0)
(-0.00146044 0 0)
(-0.00146052 0 0)
(-0.00146061 0 0)
(-0.0014607 0 0)
(-0.0014608 0 0)
(-0.0014609 0 0)
(-0.00146101 0 0)
(-0.00146112 0 0)
(-0.00146124 0 0)
(-0.00146136 0 0)
(-0.0014615 0 0)
(-0.00146163 0 0)
(-0.00146178 0 0)
(-0.00146194 0 0)
(-0.0014621 0 0)
(-0.00146227 0 0)
(-0.00146245 0 0)
(-0.00146264 0 0)
(-0.00146284 0 0)
(-0.00146304 0 0)
(-0.00146326 0 0)
(-0.00146349 0 0)
(-0.00146373 0 0)
(-0.00146399 0 0)
(-0.00146425 0 0)
(-0.00146453 0 0)
(-0.00146482 0 0)
(-0.00146513 0 0)
(-0.00146545 0 0)
(-0.00146579 0 0)
(-0.00146614 0 0)
(-0.00146651 0 0)
(-0.00146689 0 0)
(-0.0014673 0 0)
(-0.00146772 0 0)
(-0.00146817 0 0)
(-0.00146863 0 0)
(-0.00146911 0 0)
(-0.00146962 0 0)
(-0.00147015 0 0)
(-0.0014707 0 0)
(-0.00147128 0 0)
(-0.00147188 0 0)
(-0.00147251 0 0)
(-0.00147317 0 0)
(-0.00147386 0 0)
(-0.00147457 0 0)
(-0.00147532 0 0)
(-0.0014761 0 0)
(-0.00147691 0 0)
(-0.00147775 0 0)
(-0.00147863 0 0)
(-0.00147955 0 0)
(-0.0014805 0 0)
(-0.00148149 0 0)
(-0.00148253 0 0)
(-0.0014836 0 0)
(-0.00148472 0 0)
(-0.00148588 0 0)
(-0.00148709 0 0)
(-0.00148834 0 0)
(-0.00148964 0 0)
(-0.00149099 0 0)
(-0.0014924 0 0)
(-0.00149386 0 0)
(-0.00149537 0 0)
(-0.00149694 0 0)
(-0.00149856 0 0)
(-0.00150025 0 0)
(-0.00150199 0 0)
(-0.0015038 0 0)
(-0.00150568 0 0)
(-0.00150762 0 0)
(-0.00150963 0 0)
(-0.00151171 0 0)
(-0.00151386 0 0)
(-0.00151608 0 0)
(-0.00151838 0 0)
(-0.00152076 0 0)
(-0.00152322 0 0)
(-0.00152576 0 0)
(-0.00152838 0 0)
(-0.00153108 0 0)
(-0.00153388 0 0)
(-0.00153676 0 0)
(-0.00153973 0 0)
(-0.0015428 0 0)
(-0.00154596 0 0)
(-0.00154922 0 0)
(-0.00155257 0 0)
(-0.00155603 0 0)
(-0.00155959 0 0)
(-0.00156326 0 0)
(-0.00156703 0 0)
(-0.00157091 0 0)
(-0.0015749 0 0)
(-0.00157901 0 0)
(-0.00158323 0 0)
(-0.00158756 0 0)
(-0.00159201 0 0)
(-0.00159659 0 0)
(-0.00160128 0 0)
(-0.0016061 0 0)
(-0.00161104 0 0)
(-0.00161612 0 0)
(-0.00162132 0 0)
(-0.00162665 0 0)
(-0.00163211 0 0)
(-0.00163771 0 0)
(-0.00164344 0 0)
(-0.00164931 0 0)
(-0.00165531 0 0)
(-0.00166146 0 0)
(-0.00166775 0 0)
(-0.00167417 0 0)
(-0.00168074 0 0)
(-0.00168746 0 0)
(-0.00169432 0 0)
(-0.00170132 0 0)
(-0.00170847 0 0)
(-0.00171577 0 0)
(-0.00172322 0 0)
(-0.00173081 0 0)
(-0.00173855 0 0)
(-0.00174644 0 0)
(-0.00175448 0 0)
(-0.00176267 0 0)
(-0.00177101 0 0)
(-0.00177949 0 0)
(-0.00178813 0 0)
(-0.00179691 0 0)
(-0.00180584 0 0)
(-0.00181491 0 0)
(-0.00182413 0 0)
(-0.0018335 0 0)
(-0.00184301 0 0)
(-0.00185266 0 0)
(-0.00186245 0 0)
(-0.00187237 0 0)
(-0.00188244 0 0)
(-0.00189264 0 0)
(-0.00190297 0 0)
(-0.00191342 0 0)
(-0.00192401 0 0)
(-0.00193472 0 0)
(-0.00194555 0 0)
(-0.0019565 0 0)
(-0.00196756 0 0)
(-0.00197873 0 0)
(-0.00199 0 0)
(-0.00200138 0 0)
(-0.00201286 0 0)
(-0.00202442 0 0)
(-0.00203608 0 0)
(-0.00204782 0 0)
(-0.00205963 0 0)
(-0.00207151 0 0)
(-0.00208346 0 0)
(-0.00209547 0 0)
(-0.00210753 0 0)
(-0.00211963 0 0)
(-0.00213177 0 0)
(-0.00214394 0 0)
(-0.00215613 0 0)
(-0.00216834 0 0)
(-0.00218055 0 0)
(-0.00219276 0 0)
(-0.00220495 0 0)
(-0.00221713 0 0)
(-0.00222927 0 0)
(-0.00224137 0 0)
(-0.00225341 0 0)
(-0.0022654 0 0)
(-0.00227731 0 0)
(-0.00228913 0 0)
(-0.00230085 0 0)
(-0.00231246 0 0)
(-0.00232394 0 0)
(-0.00233529 0 0)
(-0.00234649 0 0)
(-0.00235752 0 0)
(-0.00236837 0 0)
(-0.00237902 0 0)
(-0.00238946 0 0)
(-0.00239967 0 0)
(-0.00240964 0 0)
(-0.00241934 0 0)
(-0.00242877 0 0)
(-0.0024379 0 0)
(-0.00244671 0 0)
(-0.00245519 0 0)
(-0.00246332 0 0)
(-0.00247107 0 0)
(-0.00247843 0 0)
(-0.00248538 0 0)
(-0.00249189 0 0)
(-0.00249797 0 0)
(-0.00250361 0 0)
(-0.00250869 0 0)
(-0.00251305 0 0)
(-0.00251674 0 0)
(-0.00251978 0 0)
(-0.00252221 0 0)
(-0.002524 0 0)
(-0.0025251 0 0)
(-0.00252548 0 0)
(-0.0025251 0 0)
(-0.00252391 0 0)
(-0.00252189 0 0)
(-0.00251898 0 0)
(-0.00251514 0 0)
(-0.00251033 0 0)
(-0.0025045 0 0)
(-0.00249761 0 0)
(-0.0024896 0 0)
(-0.00248044 0 0)
(-0.00247006 0 0)
(-0.00245842 0 0)
(-0.00244546 0 0)
(-0.00243114 0 0)
(-0.00241538 0 0)
(-0.00239814 0 0)
(-0.00237937 0 0)
(-0.00235899 0 0)
(-0.00233697 0 0)
(-0.00231322 0 0)
(-0.00228772 0 0)
(-0.00226039 0 0)
(-0.00223118 0 0)
(-0.00220005 0 0)
(-0.00216695 0 0)
(-0.00213183 0 0)
(-0.00209466 0 0)
(-0.00205542 0 0)
(-0.00201407 0 0)
(-0.00197061 0 0)
(-0.00192504 0 0)
(-0.00187736 0 0)
(-0.00182767 0 0)
(-0.0017762 0 0)
(-0.001723 0 0)
(-0.00166618 0 0)
(-0.00160157 0 0)
(-0.00153856 0 0)
)
;

boundaryField
{
    fixedWall
    {
        type            fixedValue;
        value           uniform (0 0 0);
    }
    outlet
    {
        type            pressureInletOutletVelocity;
        value           uniform (-0.00153856 0 0);
    }
    defaultFaces
    {
        type            empty;
    }
}


// ************************************************************************* //
