/*--------------------------------*- C++ -*----------------------------------*\
| =========                 |                                                 |
| \\      /  F ield         | OpenFOAM: The Open Source CFD Toolbox           |
|  \\    /   O peration     | Version:  2406                                  |
|   \\  /    A nd           | Website:  www.openfoam.com                      |
|    \\/     M anipulation  |                                                 |
\*---------------------------------------------------------------------------*/
FoamFile
{
    version     2.0;
    format      ascii;
    arch        "LSB;label=32;scalar=64";
    class       volScalarField;
    location    "9.6";
    object      O2;
}
// * * * * * * * * * * * * * * * * * * * * * * * * * * * * * * * * * * * * * //

dimensions      [0 0 0 0 0 0 0];

internalField   nonuniform List<scalar> 
1000
(
1.17526e-06
1.17322e-06
1.16952e-06
1.16443e-06
1.15816e-06
1.15087e-06
1.14268e-06
1.1337e-06
1.12402e-06
1.11371e-06
1.10283e-06
1.09144e-06
1.0796e-06
1.06734e-06
1.0547e-06
1.04173e-06
1.02846e-06
1.01491e-06
1.00112e-06
9.87111e-07
9.72912e-07
9.58545e-07
9.44034e-07
9.29399e-07
9.14661e-07
8.9984e-07
8.84955e-07
8.70025e-07
8.55066e-07
8.40098e-07
8.25136e-07
8.10197e-07
7.95298e-07
7.80454e-07
7.6568e-07
7.50991e-07
7.36401e-07
7.21926e-07
7.07577e-07
6.93369e-07
6.79313e-07
6.65422e-07
6.51707e-07
6.38178e-07
6.24846e-07
6.1172e-07
5.98808e-07
5.86119e-07
5.7366e-07
5.61437e-07
5.49457e-07
5.37725e-07
5.26245e-07
5.1502e-07
5.04055e-07
4.93351e-07
4.8291e-07
4.72734e-07
4.62823e-07
4.53177e-07
4.43795e-07
4.34677e-07
4.25821e-07
4.17226e-07
4.08888e-07
4.00805e-07
3.92975e-07
3.85393e-07
3.78056e-07
3.70961e-07
3.64102e-07
3.57476e-07
3.51079e-07
3.44904e-07
3.38948e-07
3.33206e-07
3.27673e-07
3.22343e-07
3.17212e-07
3.12274e-07
3.07524e-07
3.02957e-07
2.98568e-07
2.94352e-07
2.90303e-07
2.86417e-07
2.82689e-07
2.79113e-07
2.75685e-07
2.724e-07
2.69253e-07
2.6624e-07
2.63356e-07
2.60597e-07
2.57958e-07
2.55436e-07
2.53025e-07
2.50723e-07
2.48524e-07
2.46426e-07
2.44424e-07
2.42515e-07
2.40695e-07
2.38961e-07
2.3731e-07
2.35739e-07
2.34243e-07
2.32821e-07
2.3147e-07
2.30186e-07
2.28967e-07
2.2781e-07
2.26712e-07
2.25672e-07
2.24687e-07
2.23755e-07
2.22872e-07
2.22038e-07
2.21251e-07
2.20507e-07
2.19806e-07
2.19145e-07
2.18524e-07
2.17939e-07
2.1739e-07
2.16874e-07
2.16391e-07
2.15939e-07
2.15517e-07
2.15123e-07
2.14756e-07
2.14414e-07
2.14098e-07
2.13804e-07
2.13534e-07
2.13284e-07
2.13055e-07
2.12846e-07
2.12655e-07
2.12482e-07
2.12325e-07
2.12185e-07
2.1206e-07
2.1195e-07
2.11854e-07
2.1177e-07
2.117e-07
2.11641e-07
2.11594e-07
2.11558e-07
2.11532e-07
2.11516e-07
2.1151e-07
2.11512e-07
2.11523e-07
2.11541e-07
2.11568e-07
2.11601e-07
2.11642e-07
2.11689e-07
2.11743e-07
2.11802e-07
2.11868e-07
2.11938e-07
2.12014e-07
2.12094e-07
2.12179e-07
2.12269e-07
2.12362e-07
2.1246e-07
2.12561e-07
2.12666e-07
2.12774e-07
2.12885e-07
2.13e-07
2.13117e-07
2.13237e-07
2.1336e-07
2.13485e-07
2.13612e-07
2.13742e-07
2.13874e-07
2.14008e-07
2.14143e-07
2.14281e-07
2.1442e-07
2.14561e-07
2.14704e-07
2.14848e-07
2.14993e-07
2.1514e-07
2.15288e-07
2.15437e-07
2.15587e-07
2.15739e-07
2.15891e-07
2.16045e-07
2.16199e-07
2.16355e-07
2.16511e-07
2.16668e-07
2.16826e-07
2.16985e-07
2.17144e-07
2.17304e-07
2.17465e-07
2.17626e-07
2.17788e-07
2.17951e-07
2.18114e-07
2.18278e-07
2.18442e-07
2.18607e-07
2.18772e-07
2.18938e-07
2.19104e-07
2.19271e-07
2.19438e-07
2.19605e-07
2.19773e-07
2.19941e-07
2.2011e-07
2.20279e-07
2.20448e-07
2.20618e-07
2.20788e-07
2.20958e-07
2.21129e-07
2.213e-07
2.21471e-07
2.21642e-07
2.21813e-07
2.21986e-07
2.22158e-07
2.22331e-07
2.22504e-07
2.22678e-07
2.22852e-07
2.23025e-07
2.232e-07
2.23374e-07
2.23549e-07
2.23724e-07
2.23899e-07
2.24074e-07
2.2425e-07
2.24426e-07
2.24602e-07
2.24779e-07
2.24955e-07
2.25132e-07
2.25309e-07
2.25487e-07
2.25664e-07
2.25842e-07
2.2602e-07
2.26199e-07
2.26377e-07
2.26556e-07
2.26735e-07
2.26914e-07
2.27093e-07
2.27273e-07
2.27453e-07
2.27633e-07
2.27814e-07
2.27994e-07
2.28175e-07
2.28356e-07
2.28537e-07
2.28719e-07
2.28901e-07
2.29082e-07
2.29265e-07
2.29447e-07
2.2963e-07
2.29813e-07
2.29996e-07
2.30179e-07
2.30363e-07
2.30547e-07
2.30731e-07
2.30915e-07
2.31099e-07
2.31284e-07
2.31469e-07
2.31654e-07
2.3184e-07
2.32026e-07
2.32212e-07
2.32398e-07
2.32584e-07
2.32771e-07
2.32958e-07
2.33145e-07
2.33333e-07
2.3352e-07
2.33708e-07
2.33896e-07
2.34084e-07
2.34272e-07
2.34461e-07
2.3465e-07
2.34839e-07
2.35029e-07
2.35219e-07
2.35409e-07
2.356e-07
2.35791e-07
2.35982e-07
2.36173e-07
2.36364e-07
2.36556e-07
2.36748e-07
2.36941e-07
2.37133e-07
2.37326e-07
2.3752e-07
2.37713e-07
2.37907e-07
2.38101e-07
2.38295e-07
2.3849e-07
2.38685e-07
2.3888e-07
2.39075e-07
2.39271e-07
2.39467e-07
2.39663e-07
2.3986e-07
2.40057e-07
2.40254e-07
2.40452e-07
2.40649e-07
2.40848e-07
2.41046e-07
2.41245e-07
2.41444e-07
2.41643e-07
2.41843e-07
2.42043e-07
2.42243e-07
2.42444e-07
2.42645e-07
2.42846e-07
2.43048e-07
2.4325e-07
2.43452e-07
2.43655e-07
2.43858e-07
2.44061e-07
2.44265e-07
2.44469e-07
2.44673e-07
2.44877e-07
2.45082e-07
2.45288e-07
2.45494e-07
2.457e-07
2.45906e-07
2.46113e-07
2.4632e-07
2.46527e-07
2.46735e-07
2.46943e-07
2.47152e-07
2.47361e-07
2.4757e-07
2.4778e-07
2.4799e-07
2.482e-07
2.48411e-07
2.48622e-07
2.48833e-07
2.49045e-07
2.49257e-07
2.4947e-07
2.49683e-07
2.49897e-07
2.5011e-07
2.50324e-07
2.50539e-07
2.50754e-07
2.50969e-07
2.51185e-07
2.51401e-07
2.51617e-07
2.51834e-07
2.52052e-07
2.52269e-07
2.52487e-07
2.52706e-07
2.52925e-07
2.53144e-07
2.53363e-07
2.53583e-07
2.53804e-07
2.54025e-07
2.54246e-07
2.54467e-07
2.54689e-07
2.54912e-07
2.55135e-07
2.55358e-07
2.55581e-07
2.55805e-07
2.5603e-07
2.56255e-07
2.5648e-07
2.56705e-07
2.56931e-07
2.57158e-07
2.57385e-07
2.57612e-07
2.57839e-07
2.58067e-07
2.58296e-07
2.58525e-07
2.58754e-07
2.58984e-07
2.59214e-07
2.59444e-07
2.59675e-07
2.59906e-07
2.60138e-07
2.6037e-07
2.60603e-07
2.60836e-07
2.61069e-07
2.61303e-07
2.61537e-07
2.61771e-07
2.62006e-07
2.62242e-07
2.62478e-07
2.62714e-07
2.62951e-07
2.63188e-07
2.63425e-07
2.63663e-07
2.63901e-07
2.6414e-07
2.64379e-07
2.64619e-07
2.64859e-07
2.651e-07
2.6534e-07
2.65582e-07
2.65824e-07
2.66066e-07
2.66308e-07
2.66552e-07
2.66795e-07
2.67039e-07
2.67283e-07
2.67528e-07
2.67773e-07
2.68019e-07
2.68265e-07
2.68512e-07
2.68759e-07
2.69007e-07
2.69255e-07
2.69503e-07
2.69752e-07
2.70001e-07
2.70251e-07
2.70501e-07
2.70752e-07
2.71003e-07
2.71255e-07
2.71507e-07
2.71759e-07
2.72012e-07
2.72266e-07
2.7252e-07
2.72774e-07
2.73029e-07
2.73285e-07
2.73541e-07
2.73797e-07
2.74054e-07
2.74311e-07
2.74569e-07
2.74827e-07
2.75086e-07
2.75346e-07
2.75605e-07
2.75866e-07
2.76126e-07
2.76388e-07
2.76649e-07
2.76912e-07
2.77175e-07
2.77438e-07
2.77702e-07
2.77966e-07
2.78231e-07
2.78496e-07
2.78762e-07
2.79028e-07
2.79295e-07
2.79562e-07
2.7983e-07
2.80099e-07
2.80368e-07
2.80637e-07
2.80907e-07
2.81178e-07
2.81449e-07
2.8172e-07
2.81992e-07
2.82265e-07
2.82538e-07
2.82812e-07
2.83086e-07
2.83361e-07
2.83636e-07
2.83912e-07
2.84188e-07
2.84463e-07
2.84741e-07
2.85019e-07
2.85298e-07
2.85578e-07
2.85858e-07
2.86138e-07
2.86419e-07
2.867e-07
2.86983e-07
2.87265e-07
2.87548e-07
2.87832e-07
2.88117e-07
2.88401e-07
2.88685e-07
2.88971e-07
2.89257e-07
2.89544e-07
2.89832e-07
2.9012e-07
2.90408e-07
2.90697e-07
2.90987e-07
2.91278e-07
2.91568e-07
2.9186e-07
2.92152e-07
2.92445e-07
2.92738e-07
2.93032e-07
2.93326e-07
2.93621e-07
2.93917e-07
2.94213e-07
2.9451e-07
2.94807e-07
2.95105e-07
2.95403e-07
2.95702e-07
2.96002e-07
2.96302e-07
2.96603e-07
2.96905e-07
2.97207e-07
2.97509e-07
2.97813e-07
2.98117e-07
2.98421e-07
2.98726e-07
2.99032e-07
2.99338e-07
2.99645e-07
2.99953e-07
3.00261e-07
3.0057e-07
3.00879e-07
3.01189e-07
3.015e-07
3.01811e-07
3.02123e-07
3.02436e-07
3.02749e-07
3.03063e-07
3.03377e-07
3.03692e-07
3.04008e-07
3.04325e-07
3.04642e-07
3.04959e-07
3.05278e-07
3.05597e-07
3.05917e-07
3.06237e-07
3.06558e-07
3.0688e-07
3.07202e-07
3.07526e-07
3.07849e-07
3.08174e-07
3.08499e-07
3.08825e-07
3.09151e-07
3.09479e-07
3.09807e-07
3.10135e-07
3.10465e-07
3.10795e-07
3.11125e-07
3.11457e-07
3.11789e-07
3.12122e-07
3.12456e-07
3.1279e-07
3.13125e-07
3.13461e-07
3.13798e-07
3.14135e-07
3.14473e-07
3.14812e-07
3.15151e-07
3.15492e-07
3.15833e-07
3.16175e-07
3.16516e-07
3.16858e-07
3.17202e-07
3.17547e-07
3.17892e-07
3.18239e-07
3.18586e-07
3.18934e-07
3.19283e-07
3.19632e-07
3.19982e-07
3.20333e-07
3.20685e-07
3.21038e-07
3.21391e-07
3.21746e-07
3.22101e-07
3.22457e-07
3.22813e-07
3.23171e-07
3.23529e-07
3.23888e-07
3.24248e-07
3.24609e-07
3.2497e-07
3.25333e-07
3.25696e-07
3.2606e-07
3.26425e-07
3.2679e-07
3.27157e-07
3.27524e-07
3.27893e-07
3.28262e-07
3.28631e-07
3.29002e-07
3.29374e-07
3.29746e-07
3.30119e-07
3.30493e-07
3.30868e-07
3.31244e-07
3.31621e-07
3.31998e-07
3.32376e-07
3.32755e-07
3.33136e-07
3.33516e-07
3.33898e-07
3.34281e-07
3.34664e-07
3.35049e-07
3.35434e-07
3.3582e-07
3.36207e-07
3.36595e-07
3.36983e-07
3.37373e-07
3.37763e-07
3.38154e-07
3.38546e-07
3.38937e-07
3.39331e-07
3.39725e-07
3.40121e-07
3.40517e-07
3.40915e-07
3.41313e-07
3.41712e-07
3.42112e-07
3.42513e-07
3.42915e-07
3.43318e-07
3.43721e-07
3.44126e-07
3.44531e-07
3.44938e-07
3.45345e-07
3.45753e-07
3.46162e-07
3.46572e-07
3.46983e-07
3.47395e-07
3.47808e-07
3.48221e-07
3.48636e-07
3.49052e-07
3.49468e-07
3.49886e-07
3.50304e-07
3.50724e-07
3.51144e-07
3.51566e-07
3.51988e-07
3.52412e-07
3.52836e-07
3.53261e-07
3.53688e-07
3.54115e-07
3.54544e-07
3.54973e-07
3.55404e-07
3.55835e-07
3.56268e-07
3.56701e-07
3.57136e-07
3.57572e-07
3.58009e-07
3.58447e-07
3.58886e-07
3.59326e-07
3.59767e-07
3.60209e-07
3.60653e-07
3.61097e-07
3.61543e-07
3.6199e-07
3.62438e-07
3.62887e-07
3.63337e-07
3.63788e-07
3.64241e-07
3.64695e-07
3.6515e-07
3.65606e-07
3.66063e-07
3.66522e-07
3.66982e-07
3.67442e-07
3.67901e-07
3.68365e-07
3.6883e-07
3.69296e-07
3.69763e-07
3.70231e-07
3.70701e-07
3.71172e-07
3.71644e-07
3.72117e-07
3.72592e-07
3.73068e-07
3.73546e-07
3.74024e-07
3.74504e-07
3.74985e-07
3.75468e-07
3.75952e-07
3.76437e-07
3.76923e-07
3.77411e-07
3.779e-07
3.78391e-07
3.78882e-07
3.79376e-07
3.7987e-07
3.80366e-07
3.80863e-07
3.81361e-07
3.81861e-07
3.82362e-07
3.82865e-07
3.83369e-07
3.83874e-07
3.84381e-07
3.84889e-07
3.85396e-07
3.85904e-07
3.86416e-07
3.86929e-07
3.87444e-07
3.87959e-07
3.88476e-07
3.88995e-07
3.89515e-07
3.90036e-07
3.90558e-07
3.91082e-07
3.91607e-07
3.92134e-07
3.92661e-07
3.93191e-07
3.93721e-07
3.94253e-07
3.94787e-07
3.95322e-07
3.95858e-07
3.96395e-07
3.96934e-07
3.97475e-07
3.98017e-07
3.9856e-07
3.99105e-07
3.99651e-07
4.00199e-07
4.00748e-07
4.01299e-07
4.01852e-07
4.02405e-07
4.02961e-07
4.03518e-07
4.04077e-07
4.04637e-07
4.05199e-07
4.05763e-07
4.06328e-07
4.06896e-07
4.07465e-07
4.08036e-07
4.08608e-07
4.09183e-07
4.0976e-07
4.10339e-07
4.1092e-07
4.11503e-07
4.12089e-07
4.12677e-07
4.13267e-07
4.1386e-07
4.14456e-07
4.15055e-07
4.15656e-07
4.16261e-07
4.16869e-07
4.17481e-07
4.18096e-07
4.18715e-07
4.19339e-07
4.19966e-07
4.20599e-07
4.21236e-07
4.21879e-07
4.22527e-07
4.23182e-07
4.23843e-07
4.24511e-07
4.25187e-07
4.25871e-07
4.26564e-07
4.27266e-07
4.27978e-07
4.28701e-07
4.29436e-07
4.30184e-07
4.30946e-07
4.31722e-07
4.32515e-07
4.33325e-07
4.34153e-07
4.35002e-07
4.35873e-07
4.36768e-07
4.37688e-07
4.38636e-07
4.39614e-07
4.40624e-07
4.41669e-07
4.42751e-07
4.43875e-07
4.45041e-07
4.46256e-07
4.47521e-07
4.48841e-07
4.5022e-07
4.51663e-07
4.53174e-07
4.54759e-07
4.56424e-07
4.58173e-07
4.60015e-07
4.61954e-07
4.63999e-07
4.66157e-07
4.68436e-07
4.70845e-07
4.73394e-07
4.76091e-07
4.78947e-07
4.81974e-07
4.85182e-07
4.88584e-07
4.92192e-07
4.96022e-07
5.00086e-07
5.044e-07
5.0898e-07
5.13842e-07
5.19005e-07
5.24486e-07
5.30304e-07
5.3648e-07
5.43035e-07
5.4999e-07
5.57368e-07
5.65193e-07
5.73489e-07
5.8228e-07
5.91594e-07
6.01456e-07
6.11895e-07
6.22937e-07
6.34612e-07
6.46949e-07
6.59977e-07
6.73725e-07
6.88224e-07
7.03502e-07
7.19589e-07
7.36514e-07
7.54304e-07
7.72986e-07
7.92585e-07
8.13126e-07
8.34628e-07
8.57112e-07
8.80591e-07
9.05079e-07
9.30583e-07
9.57104e-07
9.8464e-07
1.01318e-06
1.04271e-06
1.07321e-06
1.10463e-06
1.13695e-06
1.1701e-06
1.20402e-06
1.23863e-06
1.27384e-06
1.30955e-06
1.34565e-06
1.38198e-06
1.41842e-06
1.45479e-06
1.4909e-06
1.52658e-06
1.56159e-06
1.59572e-06
1.62872e-06
1.66034e-06
1.69032e-06
1.71838e-06
1.74424e-06
1.76761e-06
1.78821e-06
1.80574e-06
1.81992e-06
1.83046e-06
1.83708e-06
1.83949e-06
1.83753e-06
1.83092e-06
1.81944e-06
1.80289e-06
1.78109e-06
1.7539e-06
1.72119e-06
1.68285e-06
1.6388e-06
1.58901e-06
1.53346e-06
1.47217e-06
1.4052e-06
1.33265e-06
1.25466e-06
1.17142e-06
1.08319e-06
9.90284e-07
8.93098e-07
7.92116e-07
6.87928e-07
5.81252e-07
4.72953e-07
3.64079e-07
2.55891e-07
1.49901e-07
4.7913e-08
)
;

boundaryField
{
    fixedWall
    {
        type            zeroGradient;
    }
    outlet
    {
        type            inletOutlet;
        inletValue      uniform 0;
        value           uniform 0;
    }
    defaultFaces
    {
        type            empty;
    }
}


// ************************************************************************* //
