/*--------------------------------*- C++ -*----------------------------------*\
| =========                 |                                                 |
| \\      /  F ield         | OpenFOAM: The Open Source CFD Toolbox           |
|  \\    /   O peration     | Version:  2406                                  |
|   \\  /    A nd           | Website:  www.openfoam.com                      |
|    \\/     M anipulation  |                                                 |
\*---------------------------------------------------------------------------*/
FoamFile
{
    version     2.0;
    format      ascii;
    arch        "LSB;label=32;scalar=64";
    class       volVectorField;
    location    "9.6";
    object      U;
}
// * * * * * * * * * * * * * * * * * * * * * * * * * * * * * * * * * * * * * //

dimensions      [0 1 -1 0 0 0 0];

internalField   nonuniform List<vector> 
1000
(
(-1.06389e-06 0 0)
(-5.0096e-06 0 0)
(-1.27475e-05 0 0)
(-2.33661e-05 0 0)
(-3.61795e-05 0 0)
(-5.0778e-05 0 0)
(-6.68762e-05 0 0)
(-8.42444e-05 0 0)
(-0.00010269 0 0)
(-0.000122053 0 0)
(-0.000142198 0 0)
(-0.000163012 0 0)
(-0.000184397 0 0)
(-0.000206268 0 0)
(-0.000228554 0 0)
(-0.000251188 0 0)
(-0.000274114 0 0)
(-0.000297282 0 0)
(-0.000320647 0 0)
(-0.000344168 0 0)
(-0.000367808 0 0)
(-0.000391535 0 0)
(-0.000415319 0 0)
(-0.000439131 0 0)
(-0.000462947 0 0)
(-0.000486744 0 0)
(-0.000510501 0 0)
(-0.000534197 0 0)
(-0.000557816 0 0)
(-0.00058134 0 0)
(-0.000604754 0 0)
(-0.000628043 0 0)
(-0.000651195 0 0)
(-0.000674196 0 0)
(-0.000697036 0 0)
(-0.000719703 0 0)
(-0.000742188 0 0)
(-0.000764482 0 0)
(-0.000786575 0 0)
(-0.00080846 0 0)
(-0.00083013 0 0)
(-0.000851577 0 0)
(-0.000872795 0 0)
(-0.00089378 0 0)
(-0.000914523 0 0)
(-0.000935021 0 0)
(-0.00095527 0 0)
(-0.000975265 0 0)
(-0.000995003 0 0)
(-0.00101448 0 0)
(-0.00103369 0 0)
(-0.00105264 0 0)
(-0.00107131 0 0)
(-0.00108972 0 0)
(-0.00110785 0 0)
(-0.0011257 0 0)
(-0.00114328 0 0)
(-0.00116058 0 0)
(-0.0011776 0 0)
(-0.00119435 0 0)
(-0.00121081 0 0)
(-0.00122699 0 0)
(-0.0012429 0 0)
(-0.00125852 0 0)
(-0.00127387 0 0)
(-0.00128894 0 0)
(-0.00130373 0 0)
(-0.00131824 0 0)
(-0.00133248 0 0)
(-0.00134644 0 0)
(-0.00136013 0 0)
(-0.00137354 0 0)
(-0.00138669 0 0)
(-0.00139957 0 0)
(-0.00141219 0 0)
(-0.00142454 0 0)
(-0.00143662 0 0)
(-0.00144845 0 0)
(-0.00146002 0 0)
(-0.00147134 0 0)
(-0.0014824 0 0)
(-0.00149321 0 0)
(-0.00150378 0 0)
(-0.0015141 0 0)
(-0.00152418 0 0)
(-0.00153402 0 0)
(-0.00154363 0 0)
(-0.00155301 0 0)
(-0.00156215 0 0)
(-0.00157107 0 0)
(-0.00157977 0 0)
(-0.00158824 0 0)
(-0.0015965 0 0)
(-0.00160455 0 0)
(-0.00161239 0 0)
(-0.00162002 0 0)
(-0.00162744 0 0)
(-0.00163467 0 0)
(-0.0016417 0 0)
(-0.00164854 0 0)
(-0.00165519 0 0)
(-0.00166166 0 0)
(-0.00166794 0 0)
(-0.00167404 0 0)
(-0.00167997 0 0)
(-0.00168572 0 0)
(-0.00169131 0 0)
(-0.00169673 0 0)
(-0.00170199 0 0)
(-0.00170709 0 0)
(-0.00171203 0 0)
(-0.00171683 0 0)
(-0.00172147 0 0)
(-0.00172598 0 0)
(-0.00173034 0 0)
(-0.00173456 0 0)
(-0.00173864 0 0)
(-0.0017426 0 0)
(-0.00174642 0 0)
(-0.00175012 0 0)
(-0.0017537 0 0)
(-0.00175716 0 0)
(-0.0017605 0 0)
(-0.00176373 0 0)
(-0.00176685 0 0)
(-0.00176986 0 0)
(-0.00177277 0 0)
(-0.00177558 0 0)
(-0.00177828 0 0)
(-0.00178089 0 0)
(-0.00178341 0 0)
(-0.00178584 0 0)
(-0.00178817 0 0)
(-0.00179043 0 0)
(-0.0017926 0 0)
(-0.00179468 0 0)
(-0.00179669 0 0)
(-0.00179863 0 0)
(-0.00180049 0 0)
(-0.00180228 0 0)
(-0.001804 0 0)
(-0.00180566 0 0)
(-0.00180725 0 0)
(-0.00180878 0 0)
(-0.00181025 0 0)
(-0.00181166 0 0)
(-0.00181301 0 0)
(-0.0018143 0 0)
(-0.00181555 0 0)
(-0.00181674 0 0)
(-0.00181788 0 0)
(-0.00181898 0 0)
(-0.00182003 0 0)
(-0.00182103 0 0)
(-0.00182199 0 0)
(-0.00182291 0 0)
(-0.00182379 0 0)
(-0.00182464 0 0)
(-0.00182545 0 0)
(-0.00182622 0 0)
(-0.00182696 0 0)
(-0.00182767 0 0)
(-0.00182835 0 0)
(-0.00182899 0 0)
(-0.00182961 0 0)
(-0.0018302 0 0)
(-0.00183076 0 0)
(-0.00183129 0 0)
(-0.00183181 0 0)
(-0.00183229 0 0)
(-0.00183276 0 0)
(-0.0018332 0 0)
(-0.00183362 0 0)
(-0.00183403 0 0)
(-0.00183441 0 0)
(-0.00183477 0 0)
(-0.00183512 0 0)
(-0.00183545 0 0)
(-0.00183576 0 0)
(-0.00183606 0 0)
(-0.00183635 0 0)
(-0.00183662 0 0)
(-0.00183687 0 0)
(-0.00183712 0 0)
(-0.00183735 0 0)
(-0.00183757 0 0)
(-0.00183777 0 0)
(-0.00183797 0 0)
(-0.00183816 0 0)
(-0.00183834 0 0)
(-0.0018385 0 0)
(-0.00183866 0 0)
(-0.00183881 0 0)
(-0.00183896 0 0)
(-0.00183909 0 0)
(-0.00183922 0 0)
(-0.00183934 0 0)
(-0.00183946 0 0)
(-0.00183956 0 0)
(-0.00183967 0 0)
(-0.00183976 0 0)
(-0.00183985 0 0)
(-0.00183994 0 0)
(-0.00184002 0 0)
(-0.0018401 0 0)
(-0.00184017 0 0)
(-0.00184024 0 0)
(-0.0018403 0 0)
(-0.00184036 0 0)
(-0.00184042 0 0)
(-0.00184047 0 0)
(-0.00184052 0 0)
(-0.00184057 0 0)
(-0.00184061 0 0)
(-0.00184066 0 0)
(-0.0018407 0 0)
(-0.00184073 0 0)
(-0.00184077 0 0)
(-0.0018408 0 0)
(-0.00184083 0 0)
(-0.00184086 0 0)
(-0.00184088 0 0)
(-0.00184091 0 0)
(-0.00184093 0 0)
(-0.00184095 0 0)
(-0.00184097 0 0)
(-0.00184099 0 0)
(-0.00184101 0 0)
(-0.00184102 0 0)
(-0.00184104 0 0)
(-0.00184105 0 0)
(-0.00184107 0 0)
(-0.00184108 0 0)
(-0.00184109 0 0)
(-0.0018411 0 0)
(-0.00184111 0 0)
(-0.00184111 0 0)
(-0.00184112 0 0)
(-0.00184113 0 0)
(-0.00184113 0 0)
(-0.00184114 0 0)
(-0.00184114 0 0)
(-0.00184115 0 0)
(-0.00184115 0 0)
(-0.00184116 0 0)
(-0.00184116 0 0)
(-0.00184116 0 0)
(-0.00184117 0 0)
(-0.00184117 0 0)
(-0.00184117 0 0)
(-0.00184117 0 0)
(-0.00184117 0 0)
(-0.00184117 0 0)
(-0.00184117 0 0)
(-0.00184117 0 0)
(-0.00184117 0 0)
(-0.00184117 0 0)
(-0.00184117 0 0)
(-0.00184117 0 0)
(-0.00184117 0 0)
(-0.00184117 0 0)
(-0.00184116 0 0)
(-0.00184117 0 0)
(-0.00184116 0 0)
(-0.00184116 0 0)
(-0.00184116 0 0)
(-0.00184116 0 0)
(-0.00184116 0 0)
(-0.00184115 0 0)
(-0.00184115 0 0)
(-0.00184114 0 0)
(-0.00184115 0 0)
(-0.00184114 0 0)
(-0.00184114 0 0)
(-0.00184114 0 0)
(-0.00184113 0 0)
(-0.00184113 0 0)
(-0.00184113 0 0)
(-0.00184112 0 0)
(-0.00184113 0 0)
(-0.00184112 0 0)
(-0.00184112 0 0)
(-0.00184111 0 0)
(-0.00184111 0 0)
(-0.00184111 0 0)
(-0.0018411 0 0)
(-0.00184111 0 0)
(-0.0018411 0 0)
(-0.0018411 0 0)
(-0.00184109 0 0)
(-0.00184109 0 0)
(-0.00184109 0 0)
(-0.00184108 0 0)
(-0.00184108 0 0)
(-0.00184108 0 0)
(-0.00184107 0 0)
(-0.00184108 0 0)
(-0.00184107 0 0)
(-0.00184107 0 0)
(-0.00184107 0 0)
(-0.00184106 0 0)
(-0.00184106 0 0)
(-0.00184106 0 0)
(-0.00184105 0 0)
(-0.00184105 0 0)
(-0.00184105 0 0)
(-0.00184104 0 0)
(-0.00184104 0 0)
(-0.00184104 0 0)
(-0.00184103 0 0)
(-0.00184104 0 0)
(-0.00184103 0 0)
(-0.00184103 0 0)
(-0.00184103 0 0)
(-0.00184102 0 0)
(-0.00184103 0 0)
(-0.00184102 0 0)
(-0.00184102 0 0)
(-0.00184101 0 0)
(-0.00184102 0 0)
(-0.00184101 0 0)
(-0.00184101 0 0)
(-0.00184101 0 0)
(-0.001841 0 0)
(-0.00184101 0 0)
(-0.001841 0 0)
(-0.001841 0 0)
(-0.001841 0 0)
(-0.001841 0 0)
(-0.00184099 0 0)
(-0.001841 0 0)
(-0.001841 0 0)
(-0.00184099 0 0)
(-0.001841 0 0)
(-0.00184099 0 0)
(-0.00184099 0 0)
(-0.00184099 0 0)
(-0.00184099 0 0)
(-0.00184099 0 0)
(-0.00184099 0 0)
(-0.00184098 0 0)
(-0.00184099 0 0)
(-0.00184099 0 0)
(-0.00184098 0 0)
(-0.00184099 0 0)
(-0.00184098 0 0)
(-0.00184099 0 0)
(-0.00184098 0 0)
(-0.00184099 0 0)
(-0.00184098 0 0)
(-0.00184098 0 0)
(-0.00184098 0 0)
(-0.00184098 0 0)
(-0.00184098 0 0)
(-0.00184098 0 0)
(-0.00184098 0 0)
(-0.00184098 0 0)
(-0.00184098 0 0)
(-0.00184099 0 0)
(-0.00184098 0 0)
(-0.00184099 0 0)
(-0.00184099 0 0)
(-0.00184099 0 0)
(-0.00184099 0 0)
(-0.00184099 0 0)
(-0.00184099 0 0)
(-0.00184099 0 0)
(-0.00184099 0 0)
(-0.00184099 0 0)
(-0.00184099 0 0)
(-0.00184099 0 0)
(-0.00184099 0 0)
(-0.00184099 0 0)
(-0.00184099 0 0)
(-0.00184099 0 0)
(-0.001841 0 0)
(-0.001841 0 0)
(-0.001841 0 0)
(-0.001841 0 0)
(-0.001841 0 0)
(-0.001841 0 0)
(-0.001841 0 0)
(-0.001841 0 0)
(-0.001841 0 0)
(-0.001841 0 0)
(-0.001841 0 0)
(-0.00184101 0 0)
(-0.00184101 0 0)
(-0.00184101 0 0)
(-0.00184101 0 0)
(-0.00184101 0 0)
(-0.00184101 0 0)
(-0.00184101 0 0)
(-0.00184101 0 0)
(-0.00184101 0 0)
(-0.00184101 0 0)
(-0.00184102 0 0)
(-0.00184101 0 0)
(-0.00184102 0 0)
(-0.00184102 0 0)
(-0.00184102 0 0)
(-0.00184102 0 0)
(-0.00184102 0 0)
(-0.00184102 0 0)
(-0.00184102 0 0)
(-0.00184102 0 0)
(-0.00184102 0 0)
(-0.00184102 0 0)
(-0.00184102 0 0)
(-0.00184102 0 0)
(-0.00184102 0 0)
(-0.00184102 0 0)
(-0.00184102 0 0)
(-0.00184102 0 0)
(-0.00184102 0 0)
(-0.00184103 0 0)
(-0.00184103 0 0)
(-0.00184103 0 0)
(-0.00184102 0 0)
(-0.00184103 0 0)
(-0.00184103 0 0)
(-0.00184103 0 0)
(-0.00184103 0 0)
(-0.00184103 0 0)
(-0.00184103 0 0)
(-0.00184103 0 0)
(-0.00184103 0 0)
(-0.00184103 0 0)
(-0.00184103 0 0)
(-0.00184103 0 0)
(-0.00184103 0 0)
(-0.00184103 0 0)
(-0.00184103 0 0)
(-0.00184103 0 0)
(-0.00184103 0 0)
(-0.00184103 0 0)
(-0.00184103 0 0)
(-0.00184103 0 0)
(-0.00184103 0 0)
(-0.00184103 0 0)
(-0.00184103 0 0)
(-0.00184103 0 0)
(-0.00184102 0 0)
(-0.00184103 0 0)
(-0.00184102 0 0)
(-0.00184103 0 0)
(-0.00184103 0 0)
(-0.00184102 0 0)
(-0.00184103 0 0)
(-0.00184102 0 0)
(-0.00184103 0 0)
(-0.00184102 0 0)
(-0.00184103 0 0)
(-0.00184102 0 0)
(-0.00184103 0 0)
(-0.00184102 0 0)
(-0.00184103 0 0)
(-0.00184102 0 0)
(-0.00184102 0 0)
(-0.00184103 0 0)
(-0.00184102 0 0)
(-0.00184102 0 0)
(-0.00184102 0 0)
(-0.00184102 0 0)
(-0.00184102 0 0)
(-0.00184102 0 0)
(-0.00184102 0 0)
(-0.00184102 0 0)
(-0.00184102 0 0)
(-0.00184102 0 0)
(-0.00184102 0 0)
(-0.00184102 0 0)
(-0.00184102 0 0)
(-0.00184102 0 0)
(-0.00184102 0 0)
(-0.00184102 0 0)
(-0.00184102 0 0)
(-0.00184102 0 0)
(-0.00184102 0 0)
(-0.00184102 0 0)
(-0.00184102 0 0)
(-0.00184102 0 0)
(-0.00184102 0 0)
(-0.00184102 0 0)
(-0.00184102 0 0)
(-0.00184102 0 0)
(-0.00184102 0 0)
(-0.00184102 0 0)
(-0.00184102 0 0)
(-0.00184102 0 0)
(-0.00184102 0 0)
(-0.00184102 0 0)
(-0.00184102 0 0)
(-0.00184102 0 0)
(-0.00184102 0 0)
(-0.00184102 0 0)
(-0.00184102 0 0)
(-0.00184102 0 0)
(-0.00184102 0 0)
(-0.00184102 0 0)
(-0.00184102 0 0)
(-0.00184102 0 0)
(-0.00184102 0 0)
(-0.00184102 0 0)
(-0.00184102 0 0)
(-0.00184102 0 0)
(-0.00184102 0 0)
(-0.00184102 0 0)
(-0.00184102 0 0)
(-0.00184102 0 0)
(-0.00184102 0 0)
(-0.00184102 0 0)
(-0.00184102 0 0)
(-0.00184102 0 0)
(-0.00184102 0 0)
(-0.00184102 0 0)
(-0.00184102 0 0)
(-0.00184102 0 0)
(-0.00184102 0 0)
(-0.00184102 0 0)
(-0.00184101 0 0)
(-0.00184102 0 0)
(-0.00184102 0 0)
(-0.00184102 0 0)
(-0.00184102 0 0)
(-0.00184102 0 0)
(-0.00184102 0 0)
(-0.00184102 0 0)
(-0.00184101 0 0)
(-0.00184102 0 0)
(-0.00184102 0 0)
(-0.00184101 0 0)
(-0.00184102 0 0)
(-0.00184102 0 0)
(-0.00184101 0 0)
(-0.00184102 0 0)
(-0.00184101 0 0)
(-0.00184101 0 0)
(-0.00184102 0 0)
(-0.00184101 0 0)
(-0.00184101 0 0)
(-0.00184101 0 0)
(-0.00184101 0 0)
(-0.00184101 0 0)
(-0.00184101 0 0)
(-0.00184101 0 0)
(-0.00184101 0 0)
(-0.00184101 0 0)
(-0.00184101 0 0)
(-0.001841 0 0)
(-0.00184101 0 0)
(-0.001841 0 0)
(-0.001841 0 0)
(-0.001841 0 0)
(-0.001841 0 0)
(-0.00184101 0 0)
(-0.001841 0 0)
(-0.001841 0 0)
(-0.001841 0 0)
(-0.001841 0 0)
(-0.001841 0 0)
(-0.001841 0 0)
(-0.001841 0 0)
(-0.00184099 0 0)
(-0.001841 0 0)
(-0.00184099 0 0)
(-0.001841 0 0)
(-0.00184099 0 0)
(-0.00184099 0 0)
(-0.00184099 0 0)
(-0.00184099 0 0)
(-0.00184099 0 0)
(-0.00184099 0 0)
(-0.00184099 0 0)
(-0.00184099 0 0)
(-0.00184099 0 0)
(-0.00184099 0 0)
(-0.00184099 0 0)
(-0.00184099 0 0)
(-0.00184099 0 0)
(-0.00184098 0 0)
(-0.00184099 0 0)
(-0.00184098 0 0)
(-0.00184099 0 0)
(-0.00184098 0 0)
(-0.00184099 0 0)
(-0.00184099 0 0)
(-0.00184098 0 0)
(-0.00184099 0 0)
(-0.00184098 0 0)
(-0.00184098 0 0)
(-0.00184098 0 0)
(-0.00184098 0 0)
(-0.00184098 0 0)
(-0.00184098 0 0)
(-0.00184098 0 0)
(-0.00184098 0 0)
(-0.00184098 0 0)
(-0.00184098 0 0)
(-0.00184098 0 0)
(-0.00184098 0 0)
(-0.00184098 0 0)
(-0.00184098 0 0)
(-0.00184098 0 0)
(-0.00184098 0 0)
(-0.00184099 0 0)
(-0.00184098 0 0)
(-0.00184098 0 0)
(-0.00184098 0 0)
(-0.00184098 0 0)
(-0.00184099 0 0)
(-0.00184098 0 0)
(-0.00184099 0 0)
(-0.00184098 0 0)
(-0.00184099 0 0)
(-0.00184099 0 0)
(-0.00184099 0 0)
(-0.00184099 0 0)
(-0.00184099 0 0)
(-0.00184099 0 0)
(-0.00184099 0 0)
(-0.00184099 0 0)
(-0.00184099 0 0)
(-0.00184099 0 0)
(-0.00184099 0 0)
(-0.00184099 0 0)
(-0.00184099 0 0)
(-0.00184099 0 0)
(-0.00184099 0 0)
(-0.00184099 0 0)
(-0.00184099 0 0)
(-0.00184099 0 0)
(-0.00184099 0 0)
(-0.00184099 0 0)
(-0.00184099 0 0)
(-0.00184099 0 0)
(-0.001841 0 0)
(-0.00184099 0 0)
(-0.001841 0 0)
(-0.001841 0 0)
(-0.001841 0 0)
(-0.001841 0 0)
(-0.001841 0 0)
(-0.001841 0 0)
(-0.001841 0 0)
(-0.001841 0 0)
(-0.001841 0 0)
(-0.001841 0 0)
(-0.001841 0 0)
(-0.001841 0 0)
(-0.001841 0 0)
(-0.001841 0 0)
(-0.001841 0 0)
(-0.001841 0 0)
(-0.001841 0 0)
(-0.001841 0 0)
(-0.001841 0 0)
(-0.001841 0 0)
(-0.001841 0 0)
(-0.00184099 0 0)
(-0.001841 0 0)
(-0.00184099 0 0)
(-0.001841 0 0)
(-0.00184099 0 0)
(-0.001841 0 0)
(-0.00184099 0 0)
(-0.00184099 0 0)
(-0.00184099 0 0)
(-0.00184099 0 0)
(-0.00184099 0 0)
(-0.00184099 0 0)
(-0.00184099 0 0)
(-0.00184098 0 0)
(-0.00184099 0 0)
(-0.00184099 0 0)
(-0.00184098 0 0)
(-0.00184099 0 0)
(-0.00184098 0 0)
(-0.00184098 0 0)
(-0.00184098 0 0)
(-0.00184098 0 0)
(-0.00184098 0 0)
(-0.00184097 0 0)
(-0.00184098 0 0)
(-0.00184097 0 0)
(-0.00184097 0 0)
(-0.00184097 0 0)
(-0.00184097 0 0)
(-0.00184097 0 0)
(-0.00184096 0 0)
(-0.00184097 0 0)
(-0.00184096 0 0)
(-0.00184096 0 0)
(-0.00184096 0 0)
(-0.00184095 0 0)
(-0.00184096 0 0)
(-0.00184095 0 0)
(-0.00184095 0 0)
(-0.00184095 0 0)
(-0.00184094 0 0)
(-0.00184095 0 0)
(-0.00184094 0 0)
(-0.00184094 0 0)
(-0.00184094 0 0)
(-0.00184094 0 0)
(-0.00184094 0 0)
(-0.00184093 0 0)
(-0.00184094 0 0)
(-0.00184094 0 0)
(-0.00184093 0 0)
(-0.00184093 0 0)
(-0.00184093 0 0)
(-0.00184093 0 0)
(-0.00184093 0 0)
(-0.00184092 0 0)
(-0.00184093 0 0)
(-0.00184093 0 0)
(-0.00184092 0 0)
(-0.00184093 0 0)
(-0.00184092 0 0)
(-0.00184092 0 0)
(-0.00184092 0 0)
(-0.00184092 0 0)
(-0.00184092 0 0)
(-0.00184092 0 0)
(-0.00184092 0 0)
(-0.00184092 0 0)
(-0.00184092 0 0)
(-0.00184092 0 0)
(-0.00184092 0 0)
(-0.00184092 0 0)
(-0.00184092 0 0)
(-0.00184092 0 0)
(-0.00184092 0 0)
(-0.00184092 0 0)
(-0.00184092 0 0)
(-0.00184092 0 0)
(-0.00184092 0 0)
(-0.00184093 0 0)
(-0.00184093 0 0)
(-0.00184093 0 0)
(-0.00184093 0 0)
(-0.00184093 0 0)
(-0.00184093 0 0)
(-0.00184093 0 0)
(-0.00184093 0 0)
(-0.00184093 0 0)
(-0.00184094 0 0)
(-0.00184094 0 0)
(-0.00184094 0 0)
(-0.00184094 0 0)
(-0.00184094 0 0)
(-0.00184094 0 0)
(-0.00184095 0 0)
(-0.00184094 0 0)
(-0.00184095 0 0)
(-0.00184095 0 0)
(-0.00184095 0 0)
(-0.00184096 0 0)
(-0.00184096 0 0)
(-0.00184096 0 0)
(-0.00184096 0 0)
(-0.00184096 0 0)
(-0.00184097 0 0)
(-0.00184096 0 0)
(-0.00184097 0 0)
(-0.00184097 0 0)
(-0.00184097 0 0)
(-0.00184097 0 0)
(-0.00184097 0 0)
(-0.00184097 0 0)
(-0.00184098 0 0)
(-0.00184098 0 0)
(-0.00184098 0 0)
(-0.00184098 0 0)
(-0.00184098 0 0)
(-0.00184098 0 0)
(-0.00184098 0 0)
(-0.00184098 0 0)
(-0.00184099 0 0)
(-0.00184099 0 0)
(-0.00184099 0 0)
(-0.00184099 0 0)
(-0.00184099 0 0)
(-0.00184099 0 0)
(-0.00184099 0 0)
(-0.00184099 0 0)
(-0.00184099 0 0)
(-0.00184099 0 0)
(-0.00184099 0 0)
(-0.00184099 0 0)
(-0.00184099 0 0)
(-0.00184099 0 0)
(-0.00184099 0 0)
(-0.00184099 0 0)
(-0.00184099 0 0)
(-0.00184099 0 0)
(-0.00184099 0 0)
(-0.00184099 0 0)
(-0.00184099 0 0)
(-0.00184099 0 0)
(-0.00184099 0 0)
(-0.00184099 0 0)
(-0.001841 0 0)
(-0.00184099 0 0)
(-0.001841 0 0)
(-0.001841 0 0)
(-0.001841 0 0)
(-0.001841 0 0)
(-0.001841 0 0)
(-0.001841 0 0)
(-0.00184101 0 0)
(-0.00184101 0 0)
(-0.00184102 0 0)
(-0.00184102 0 0)
(-0.00184102 0 0)
(-0.00184103 0 0)
(-0.00184104 0 0)
(-0.00184105 0 0)
(-0.00184105 0 0)
(-0.00184107 0 0)
(-0.00184108 0 0)
(-0.00184109 0 0)
(-0.0018411 0 0)
(-0.00184112 0 0)
(-0.00184114 0 0)
(-0.00184116 0 0)
(-0.00184118 0 0)
(-0.0018412 0 0)
(-0.00184123 0 0)
(-0.00184126 0 0)
(-0.0018413 0 0)
(-0.00184133 0 0)
(-0.00184137 0 0)
(-0.00184142 0 0)
(-0.00184147 0 0)
(-0.00184152 0 0)
(-0.00184159 0 0)
(-0.00184165 0 0)
(-0.00184173 0 0)
(-0.00184181 0 0)
(-0.0018419 0 0)
(-0.001842 0 0)
(-0.0018421 0 0)
(-0.00184222 0 0)
(-0.00184235 0 0)
(-0.00184249 0 0)
(-0.00184264 0 0)
(-0.00184281 0 0)
(-0.00184299 0 0)
(-0.00184319 0 0)
(-0.0018434 0 0)
(-0.00184364 0 0)
(-0.00184389 0 0)
(-0.00184417 0 0)
(-0.00184447 0 0)
(-0.0018448 0 0)
(-0.00184516 0 0)
(-0.00184554 0 0)
(-0.00184596 0 0)
(-0.00184641 0 0)
(-0.0018469 0 0)
(-0.00184743 0 0)
(-0.001848 0 0)
(-0.00184862 0 0)
(-0.00184929 0 0)
(-0.00185001 0 0)
(-0.00185078 0 0)
(-0.00185162 0 0)
(-0.00185252 0 0)
(-0.00185349 0 0)
(-0.00185453 0 0)
(-0.00185565 0 0)
(-0.00185685 0 0)
(-0.00185813 0 0)
(-0.00185952 0 0)
(-0.001861 0 0)
(-0.00186258 0 0)
(-0.00186428 0 0)
(-0.0018661 0 0)
(-0.00186804 0 0)
(-0.00187011 0 0)
(-0.00187233 0 0)
(-0.00187469 0 0)
(-0.00187721 0 0)
(-0.00187989 0 0)
(-0.00188275 0 0)
(-0.00188578 0 0)
(-0.00188901 0 0)
(-0.00189245 0 0)
(-0.00189609 0 0)
(-0.00189995 0 0)
(-0.00190405 0 0)
(-0.0019084 0 0)
(-0.00191299 0 0)
(-0.00191786 0 0)
(-0.001923 0 0)
(-0.00192843 0 0)
(-0.00193417 0 0)
(-0.00194022 0 0)
(-0.0019466 0 0)
(-0.00195333 0 0)
(-0.0019604 0 0)
(-0.00196785 0 0)
(-0.00197567 0 0)
(-0.0019839 0 0)
(-0.00199253 0 0)
(-0.00200158 0 0)
(-0.00201107 0 0)
(-0.00202101 0 0)
(-0.00203142 0 0)
(-0.0020423 0 0)
(-0.00205367 0 0)
(-0.00206554 0 0)
(-0.00207794 0 0)
(-0.00209086 0 0)
(-0.00210432 0 0)
(-0.00211834 0 0)
(-0.00213292 0 0)
(-0.00214808 0 0)
(-0.00216383 0 0)
(-0.00218017 0 0)
(-0.00219712 0 0)
(-0.00221469 0 0)
(-0.00223287 0 0)
(-0.00225168 0 0)
(-0.00227113 0 0)
(-0.00229122 0 0)
(-0.00231195 0 0)
(-0.00233332 0 0)
(-0.00235534 0 0)
(-0.00237801 0 0)
(-0.00240132 0 0)
(-0.00242527 0 0)
(-0.00244985 0 0)
(-0.00247507 0 0)
(-0.00250091 0 0)
(-0.00252735 0 0)
(-0.0025544 0 0)
(-0.00258203 0 0)
(-0.00261023 0 0)
(-0.00263898 0 0)
(-0.00266825 0 0)
(-0.00269803 0 0)
(-0.00272829 0 0)
(-0.002759 0 0)
(-0.00279013 0 0)
(-0.00282164 0 0)
(-0.0028535 0 0)
(-0.00288566 0 0)
(-0.00291809 0 0)
(-0.00295073 0 0)
(-0.00298353 0 0)
(-0.00301645 0 0)
(-0.00304942 0 0)
(-0.00308238 0 0)
(-0.00311526 0 0)
(-0.003148 0 0)
(-0.00318052 0 0)
(-0.00321274 0 0)
(-0.00324457 0 0)
(-0.00327593 0 0)
(-0.00330672 0 0)
(-0.00333684 0 0)
(-0.00336618 0 0)
(-0.00339462 0 0)
(-0.00342205 0 0)
(-0.00344833 0 0)
(-0.00347335 0 0)
(-0.00349695 0 0)
(-0.00351896 0 0)
(-0.00353932 0 0)
(-0.00355777 0 0)
(-0.00357417 0 0)
(-0.00358842 0 0)
(-0.00360032 0 0)
(-0.00360965 0 0)
(-0.00361608 0 0)
(-0.00361918 0 0)
(-0.00361892 0 0)
(-0.00361487 0 0)
(-0.00360671 0 0)
(-0.00359422 0 0)
(-0.00357692 0 0)
(-0.0035545 0 0)
(-0.00352651 0 0)
(-0.00349254 0 0)
(-0.00345211 0 0)
(-0.00340472 0 0)
(-0.00334987 0 0)
(-0.00328701 0 0)
(-0.00321557 0 0)
(-0.003135 0 0)
(-0.00304468 0 0)
(-0.00294429 0 0)
(-0.00283381 0 0)
(-0.0027128 0 0)
(-0.00257515 0 0)
(-0.00240781 0 0)
(-0.00223906 0 0)
)
;

boundaryField
{
    fixedWall
    {
        type            fixedValue;
        value           uniform (0 0 0);
    }
    outlet
    {
        type            pressureInletOutletVelocity;
        value           uniform (-0.00223906 0 0);
    }
    defaultFaces
    {
        type            empty;
    }
}


// ************************************************************************* //
