/*--------------------------------*- C++ -*----------------------------------*\
| =========                 |                                                 |
| \\      /  F ield         | OpenFOAM: The Open Source CFD Toolbox           |
|  \\    /   O peration     | Version:  2406                                  |
|   \\  /    A nd           | Website:  www.openfoam.com                      |
|    \\/     M anipulation  |                                                 |
\*---------------------------------------------------------------------------*/
FoamFile
{
    version     2.0;
    format      ascii;
    arch        "LSB;label=32;scalar=64";
    class       volScalarField;
    location    "14.4";
    object      CO2;
}
// * * * * * * * * * * * * * * * * * * * * * * * * * * * * * * * * * * * * * //

dimensions      [0 0 0 0 0 0 0];

internalField   nonuniform List<scalar> 
1000
(
0.0709262
0.0709262
0.0709262
0.0709262
0.0709262
0.0709262
0.0709262
0.0709262
0.0709262
0.0709262
0.0709262
0.0709262
0.0709262
0.0709262
0.0709262
0.0709262
0.0709262
0.0709262
0.0709262
0.0709263
0.0709263
0.0709263
0.0709263
0.0709263
0.0709263
0.0709263
0.0709263
0.0709263
0.0709263
0.0709263
0.0709263
0.0709263
0.0709264
0.0709264
0.0709264
0.0709264
0.0709264
0.0709264
0.0709264
0.0709264
0.0709264
0.0709264
0.0709264
0.0709264
0.0709264
0.0709264
0.0709265
0.0709265
0.0709265
0.0709265
0.0709265
0.0709265
0.0709265
0.0709265
0.0709265
0.0709265
0.0709265
0.0709265
0.0709265
0.0709265
0.0709265
0.0709266
0.0709266
0.0709266
0.0709266
0.0709266
0.0709266
0.0709266
0.0709266
0.0709266
0.0709266
0.0709266
0.0709266
0.0709266
0.0709266
0.0709266
0.0709266
0.0709266
0.0709266
0.0709266
0.0709266
0.0709266
0.0709267
0.0709267
0.0709267
0.0709267
0.0709267
0.0709267
0.0709267
0.0709267
0.0709267
0.0709267
0.0709267
0.0709267
0.0709267
0.0709267
0.0709267
0.0709267
0.0709267
0.0709267
0.0709267
0.0709267
0.0709267
0.0709267
0.0709267
0.0709267
0.0709267
0.0709267
0.0709267
0.0709267
0.0709267
0.0709267
0.0709267
0.0709267
0.0709267
0.0709267
0.0709267
0.0709267
0.0709267
0.0709267
0.0709267
0.0709267
0.0709267
0.0709267
0.0709267
0.0709267
0.0709267
0.0709267
0.0709267
0.0709267
0.0709267
0.0709267
0.0709267
0.0709267
0.0709267
0.0709267
0.0709267
0.0709267
0.0709267
0.0709267
0.0709267
0.0709267
0.0709267
0.0709267
0.0709267
0.0709267
0.0709267
0.0709267
0.0709267
0.0709267
0.0709267
0.0709267
0.0709267
0.0709267
0.0709267
0.0709267
0.0709267
0.0709267
0.0709267
0.0709268
0.0709268
0.0709268
0.0709268
0.0709268
0.0709268
0.0709268
0.0709268
0.0709268
0.0709268
0.0709268
0.0709268
0.0709268
0.0709268
0.0709268
0.0709268
0.0709268
0.0709268
0.0709268
0.0709268
0.0709268
0.0709268
0.0709268
0.0709268
0.0709268
0.0709268
0.0709268
0.0709268
0.0709268
0.0709268
0.0709268
0.0709268
0.0709268
0.0709268
0.0709268
0.0709268
0.0709268
0.0709268
0.0709268
0.0709268
0.0709268
0.0709268
0.0709268
0.0709268
0.0709268
0.0709268
0.0709268
0.0709268
0.0709268
0.0709268
0.0709268
0.0709268
0.0709268
0.0709268
0.0709268
0.0709268
0.0709268
0.0709268
0.0709268
0.0709268
0.0709268
0.0709268
0.0709268
0.0709268
0.0709268
0.0709268
0.0709268
0.0709268
0.0709268
0.0709268
0.0709268
0.0709268
0.0709268
0.0709268
0.0709268
0.0709268
0.0709268
0.0709268
0.0709268
0.0709268
0.0709268
0.0709268
0.0709268
0.0709268
0.0709268
0.0709268
0.0709268
0.0709268
0.0709268
0.0709268
0.0709268
0.0709268
0.0709268
0.0709268
0.0709268
0.0709268
0.0709268
0.0709268
0.0709268
0.0709268
0.0709268
0.0709268
0.0709268
0.0709268
0.0709268
0.0709268
0.0709268
0.0709268
0.0709268
0.0709268
0.0709268
0.0709267
0.0709267
0.0709267
0.0709267
0.0709267
0.0709267
0.0709267
0.0709267
0.0709267
0.0709267
0.0709267
0.0709267
0.0709267
0.0709267
0.0709267
0.0709267
0.0709267
0.0709267
0.0709267
0.0709267
0.0709267
0.0709267
0.0709267
0.0709267
0.0709267
0.0709267
0.0709267
0.0709267
0.0709267
0.0709267
0.0709267
0.0709267
0.0709267
0.0709267
0.0709267
0.0709267
0.0709267
0.0709267
0.0709267
0.0709267
0.0709267
0.0709267
0.0709267
0.0709267
0.0709267
0.0709267
0.0709267
0.0709267
0.0709267
0.0709267
0.0709267
0.0709267
0.0709267
0.0709267
0.0709267
0.0709267
0.0709267
0.0709267
0.0709267
0.0709267
0.0709267
0.0709267
0.0709267
0.0709267
0.0709267
0.0709267
0.0709267
0.0709267
0.0709267
0.0709267
0.0709267
0.0709267
0.0709267
0.0709267
0.0709267
0.0709267
0.0709267
0.0709267
0.0709267
0.0709267
0.0709267
0.0709267
0.0709267
0.0709267
0.0709267
0.0709267
0.0709267
0.0709267
0.0709267
0.0709267
0.0709267
0.0709267
0.0709267
0.0709267
0.0709267
0.0709267
0.0709267
0.0709267
0.0709267
0.0709267
0.0709267
0.0709267
0.0709267
0.0709267
0.0709267
0.0709267
0.0709267
0.0709267
0.0709267
0.0709267
0.0709267
0.0709267
0.0709267
0.0709267
0.0709267
0.0709267
0.0709267
0.0709267
0.0709267
0.0709267
0.0709267
0.0709267
0.0709267
0.0709267
0.0709267
0.0709267
0.0709267
0.0709267
0.0709267
0.0709267
0.0709267
0.0709267
0.0709267
0.0709267
0.0709267
0.0709267
0.0709267
0.0709267
0.0709267
0.0709267
0.0709267
0.0709267
0.0709267
0.0709267
0.0709267
0.0709267
0.0709267
0.0709267
0.0709267
0.0709267
0.0709267
0.0709267
0.0709267
0.0709267
0.0709267
0.0709267
0.0709267
0.0709267
0.0709267
0.0709267
0.0709267
0.0709267
0.0709267
0.0709267
0.0709267
0.0709267
0.0709267
0.0709267
0.0709267
0.0709267
0.0709267
0.0709267
0.0709267
0.0709267
0.0709267
0.0709267
0.0709267
0.0709267
0.0709267
0.0709267
0.0709267
0.0709267
0.0709267
0.0709267
0.0709267
0.0709267
0.0709267
0.0709267
0.0709267
0.0709267
0.0709267
0.0709267
0.0709267
0.0709267
0.0709267
0.0709267
0.0709267
0.0709267
0.0709267
0.0709267
0.0709267
0.0709267
0.0709267
0.0709267
0.0709267
0.0709267
0.0709267
0.0709267
0.0709267
0.0709267
0.0709267
0.0709267
0.0709267
0.0709267
0.0709267
0.0709267
0.0709267
0.0709267
0.0709267
0.0709267
0.0709267
0.0709267
0.0709267
0.0709267
0.0709267
0.0709267
0.0709267
0.0709267
0.0709267
0.0709267
0.0709267
0.0709267
0.0709267
0.0709267
0.0709267
0.0709267
0.0709267
0.0709267
0.0709267
0.0709267
0.0709267
0.0709267
0.0709267
0.0709267
0.0709267
0.0709267
0.0709267
0.0709267
0.0709267
0.0709267
0.0709267
0.0709267
0.0709267
0.0709267
0.0709267
0.0709267
0.0709267
0.0709267
0.0709267
0.0709267
0.0709267
0.0709267
0.0709267
0.0709267
0.0709267
0.0709267
0.0709267
0.0709267
0.0709267
0.0709267
0.0709267
0.0709267
0.0709267
0.0709267
0.0709267
0.0709267
0.0709267
0.0709267
0.0709267
0.0709267
0.0709267
0.0709267
0.0709267
0.0709267
0.0709267
0.0709267
0.0709267
0.0709267
0.0709267
0.0709267
0.0709267
0.0709267
0.0709267
0.0709267
0.0709267
0.0709267
0.0709267
0.0709267
0.0709267
0.0709267
0.0709267
0.0709267
0.0709267
0.0709267
0.0709267
0.0709267
0.0709267
0.0709267
0.0709267
0.0709267
0.0709267
0.0709267
0.0709267
0.0709267
0.0709267
0.0709267
0.0709267
0.0709267
0.0709267
0.0709267
0.0709267
0.0709267
0.0709267
0.0709267
0.0709267
0.0709267
0.0709267
0.0709267
0.0709267
0.0709267
0.0709267
0.0709267
0.0709267
0.0709267
0.0709267
0.0709267
0.0709267
0.0709267
0.0709267
0.0709267
0.0709267
0.0709267
0.0709267
0.0709267
0.0709267
0.0709267
0.0709267
0.0709267
0.0709267
0.0709267
0.0709267
0.0709267
0.0709267
0.0709267
0.0709267
0.0709267
0.0709267
0.0709267
0.0709267
0.0709267
0.0709267
0.0709267
0.0709267
0.0709267
0.0709267
0.0709267
0.0709267
0.0709267
0.0709267
0.0709267
0.0709267
0.0709267
0.0709267
0.0709267
0.0709267
0.0709267
0.0709267
0.0709267
0.0709267
0.0709267
0.0709267
0.0709267
0.0709267
0.0709267
0.0709267
0.0709267
0.0709267
0.0709267
0.0709267
0.0709267
0.0709267
0.0709267
0.0709267
0.0709267
0.0709267
0.0709267
0.0709267
0.0709267
0.0709267
0.0709267
0.0709267
0.0709267
0.0709267
0.0709267
0.0709267
0.0709267
0.0709267
0.0709267
0.0709267
0.0709267
0.0709267
0.0709267
0.0709267
0.0709267
0.0709267
0.0709267
0.0709267
0.0709267
0.0709267
0.0709267
0.0709267
0.0709267
0.0709267
0.0709267
0.0709267
0.0709267
0.0709267
0.0709267
0.0709267
0.0709267
0.0709267
0.0709267
0.0709267
0.0709267
0.0709267
0.0709267
0.0709267
0.0709267
0.0709267
0.0709267
0.0709267
0.0709267
0.0709267
0.0709267
0.0709267
0.0709267
0.0709267
0.0709267
0.0709267
0.0709267
0.0709267
0.0709267
0.0709267
0.0709267
0.0709267
0.0709267
0.0709267
0.0709267
0.0709267
0.0709267
0.0709267
0.0709267
0.0709267
0.0709267
0.0709267
0.0709267
0.0709267
0.0709266
0.0709266
0.0709266
0.0709266
0.0709266
0.0709266
0.0709266
0.0709266
0.0709266
0.0709265
0.0709265
0.0709265
0.0709265
0.0709265
0.0709264
0.0709264
0.0709264
0.0709264
0.0709263
0.0709263
0.0709263
0.0709262
0.0709262
0.0709261
0.0709261
0.070926
0.0709259
0.0709259
0.0709258
0.0709257
0.0709256
0.0709255
0.0709254
0.0709253
0.0709251
0.070925
0.0709249
0.0709247
0.0709245
0.0709243
0.0709241
0.0709239
0.0709237
0.0709234
0.0709231
0.0709228
0.0709225
0.0709222
0.0709218
0.0709214
0.0709209
0.0709204
0.0709199
0.0709194
0.0709188
0.0709182
0.0709175
0.0709167
0.0709159
0.0709151
0.0709142
0.0709132
0.0709121
0.070911
0.0709098
0.0709085
0.070907
0.0709055
0.0709039
0.0709022
0.0709004
0.0708984
0.0708963
0.070894
0.0708916
0.070889
0.0708863
0.0708833
0.0708802
0.0708768
0.0708732
0.0708694
0.0708653
0.070861
0.0708564
0.0708515
0.0708462
0.0708406
0.0708347
0.0708284
0.0708217
0.0708145
0.070807
0.0707989
0.0707904
0.0707813
0.0707717
0.0707615
0.0707507
0.0707393
0.0707272
0.0707143
0.0707007
0.0706863
0.0706711
0.070655
0.070638
0.0706201
0.0706011
0.0705811
0.0705599
0.0705376
0.0705141
0.0704893
0.0704631
0.0704356
0.0704066
0.070376
0.0703439
0.07031
0.0702745
0.0702371
0.0701978
0.0701565
0.0701131
0.0700676
0.0700198
0.0699697
0.0699172
0.0698621
0.0698043
0.0697439
0.0696806
0.0696143
0.0695449
0.0694724
0.0693965
0.0693172
0.0692344
0.0691478
0.0690575
0.0689632
0.0688648
0.0687621
0.0686551
0.0685436
0.0684274
0.0683064
0.0681805
0.0680494
0.067913
0.0677711
0.0676237
0.0674705
0.0673113
0.067146
0.0669744
0.0667964
0.0666117
0.0664202
0.0662217
0.066016
0.065803
0.0655825
0.0653542
0.065118
0.0648738
0.0646213
0.0643603
0.0640908
0.0638124
0.063525
0.0632285
0.0629227
0.0626073
0.0622823
0.0619474
0.0616025
0.0612474
0.0608819
0.060506
0.0601194
0.0597221
0.0593138
0.0588944
0.0584638
0.0580219
0.0575686
0.0571037
0.0566271
0.0561388
0.0556386
0.0551266
0.0546025
0.0540664
0.0535181
0.0529578
0.0523852
0.0518005
0.0512035
0.0505944
0.0499731
0.0493396
0.048694
0.0480363
0.0473666
0.046685
0.0459916
0.0452865
0.0445698
0.0438416
0.0431022
0.0423516
0.0415901
0.040818
0.0400353
0.0392425
0.0384398
0.0376292
0.0368194
0.0359887
0.0351491
0.0343009
0.0334444
0.0325801
0.0317083
0.0308295
0.0299443
0.029053
0.0281561
0.0272542
0.0263478
0.0254373
0.0245234
0.0236067
0.0226878
0.0217672
0.0208457
0.019924
0.0190027
0.0180826
0.0171646
0.0162493
0.0153378
0.0144308
0.0135293
0.0126344
0.011747
0.0108682
0.00999928
0.0091414
0.00829589
0.00746413
0.00664761
0.0058479
0.00506669
0.00430576
0.00356701
0.00285244
0.00216419
0.00150447
0.000875602
0.000279968
)
;

boundaryField
{
    fixedWall
    {
        type            zeroGradient;
    }
    outlet
    {
        type            inletOutlet;
        inletValue      uniform 0;
        value           uniform 0;
    }
    defaultFaces
    {
        type            empty;
    }
}


// ************************************************************************* //
