/*--------------------------------*- C++ -*----------------------------------*\
| =========                 |                                                 |
| \\      /  F ield         | OpenFOAM: The Open Source CFD Toolbox           |
|  \\    /   O peration     | Version:  2406                                  |
|   \\  /    A nd           | Website:  www.openfoam.com                      |
|    \\/     M anipulation  |                                                 |
\*---------------------------------------------------------------------------*/
FoamFile
{
    version     2.0;
    format      ascii;
    arch        "LSB;label=32;scalar=64";
    class       surfaceScalarField;
    location    "14.4";
    object      phi;
}
// * * * * * * * * * * * * * * * * * * * * * * * * * * * * * * * * * * * * * //

dimensions      [1 0 -1 0 0 0 0];

oriented        oriented;

internalField   nonuniform List<scalar> 
999
(
-1.05903e-08
-3.61853e-08
-7.18468e-08
-1.1439e-07
-1.61709e-07
-2.12328e-07
-2.65219e-07
-3.19643e-07
-3.75055e-07
-4.31056e-07
-4.87345e-07
-5.43697e-07
-5.99928e-07
-6.55915e-07
-7.11555e-07
-7.66771e-07
-8.21502e-07
-8.75701e-07
-9.29339e-07
-9.82381e-07
-1.03482e-06
-1.08663e-06
-1.13781e-06
-1.18835e-06
-1.23825e-06
-1.28751e-06
-1.33613e-06
-1.38411e-06
-1.43146e-06
-1.47817e-06
-1.52426e-06
-1.56973e-06
-1.61457e-06
-1.65882e-06
-1.70246e-06
-1.7455e-06
-1.78795e-06
-1.82982e-06
-1.87111e-06
-1.91183e-06
-1.95199e-06
-1.99158e-06
-2.03063e-06
-2.06913e-06
-2.10709e-06
-2.14452e-06
-2.18142e-06
-2.2178e-06
-2.25367e-06
-2.28902e-06
-2.32387e-06
-2.35822e-06
-2.39208e-06
-2.42545e-06
-2.45834e-06
-2.49075e-06
-2.52269e-06
-2.55416e-06
-2.58517e-06
-2.61572e-06
-2.64582e-06
-2.67547e-06
-2.70468e-06
-2.73345e-06
-2.76178e-06
-2.78968e-06
-2.81716e-06
-2.84421e-06
-2.87085e-06
-2.89708e-06
-2.92289e-06
-2.9483e-06
-2.97331e-06
-2.99793e-06
-3.02215e-06
-3.04598e-06
-3.06943e-06
-3.0925e-06
-3.11519e-06
-3.13752e-06
-3.15947e-06
-3.18105e-06
-3.20228e-06
-3.22314e-06
-3.24366e-06
-3.26382e-06
-3.28364e-06
-3.30312e-06
-3.32225e-06
-3.34106e-06
-3.35953e-06
-3.37767e-06
-3.39549e-06
-3.41299e-06
-3.43018e-06
-3.44705e-06
-3.46361e-06
-3.47986e-06
-3.49581e-06
-3.51147e-06
-3.52683e-06
-3.5419e-06
-3.55667e-06
-3.57117e-06
-3.58539e-06
-3.59932e-06
-3.61299e-06
-3.62638e-06
-3.63951e-06
-3.65237e-06
-3.66497e-06
-3.67732e-06
-3.68941e-06
-3.70125e-06
-3.71285e-06
-3.72421e-06
-3.73532e-06
-3.7462e-06
-3.75685e-06
-3.76727e-06
-3.77747e-06
-3.78744e-06
-3.79719e-06
-3.80672e-06
-3.81605e-06
-3.82516e-06
-3.83407e-06
-3.84278e-06
-3.85129e-06
-3.8596e-06
-3.86772e-06
-3.87565e-06
-3.88339e-06
-3.89095e-06
-3.89833e-06
-3.90553e-06
-3.91256e-06
-3.91941e-06
-3.9261e-06
-3.93263e-06
-3.93899e-06
-3.94519e-06
-3.95124e-06
-3.95713e-06
-3.96287e-06
-3.96847e-06
-3.97392e-06
-3.97923e-06
-3.9844e-06
-3.98943e-06
-3.99434e-06
-3.99911e-06
-4.00375e-06
-4.00827e-06
-4.01266e-06
-4.01694e-06
-4.02109e-06
-4.02514e-06
-4.02906e-06
-4.03288e-06
-4.0366e-06
-4.0402e-06
-4.0437e-06
-4.04711e-06
-4.05041e-06
-4.05362e-06
-4.05673e-06
-4.05975e-06
-4.06268e-06
-4.06552e-06
-4.06828e-06
-4.07095e-06
-4.07354e-06
-4.07605e-06
-4.07848e-06
-4.08084e-06
-4.08312e-06
-4.08532e-06
-4.08745e-06
-4.08952e-06
-4.09154e-06
-4.09349e-06
-4.09538e-06
-4.09722e-06
-4.09901e-06
-4.10074e-06
-4.10241e-06
-4.10403e-06
-4.10558e-06
-4.10709e-06
-4.10853e-06
-4.10992e-06
-4.11126e-06
-4.11255e-06
-4.11379e-06
-4.11499e-06
-4.11615e-06
-4.11729e-06
-4.11839e-06
-4.11944e-06
-4.12046e-06
-4.12144e-06
-4.12239e-06
-4.1233e-06
-4.12417e-06
-4.12502e-06
-4.12583e-06
-4.12661e-06
-4.12737e-06
-4.1281e-06
-4.1288e-06
-4.12948e-06
-4.13013e-06
-4.13075e-06
-4.13136e-06
-4.13193e-06
-4.13249e-06
-4.13303e-06
-4.13354e-06
-4.13403e-06
-4.13451e-06
-4.13496e-06
-4.1354e-06
-4.13582e-06
-4.13623e-06
-4.13662e-06
-4.13699e-06
-4.13735e-06
-4.13769e-06
-4.13802e-06
-4.13833e-06
-4.13863e-06
-4.13892e-06
-4.1392e-06
-4.13946e-06
-4.13972e-06
-4.13996e-06
-4.14019e-06
-4.14041e-06
-4.14063e-06
-4.14083e-06
-4.14103e-06
-4.14121e-06
-4.14139e-06
-4.14156e-06
-4.14173e-06
-4.14188e-06
-4.14203e-06
-4.14217e-06
-4.14231e-06
-4.14244e-06
-4.14256e-06
-4.14268e-06
-4.14279e-06
-4.1429e-06
-4.143e-06
-4.1431e-06
-4.14319e-06
-4.14328e-06
-4.14336e-06
-4.14344e-06
-4.14352e-06
-4.14359e-06
-4.14365e-06
-4.14372e-06
-4.14378e-06
-4.14384e-06
-4.14389e-06
-4.14395e-06
-4.144e-06
-4.14404e-06
-4.14409e-06
-4.14413e-06
-4.14417e-06
-4.14421e-06
-4.14424e-06
-4.14428e-06
-4.14431e-06
-4.14434e-06
-4.14437e-06
-4.14439e-06
-4.14442e-06
-4.14444e-06
-4.14447e-06
-4.14449e-06
-4.14451e-06
-4.14452e-06
-4.14454e-06
-4.14456e-06
-4.14457e-06
-4.14459e-06
-4.1446e-06
-4.14461e-06
-4.14462e-06
-4.14463e-06
-4.14464e-06
-4.14465e-06
-4.14466e-06
-4.14467e-06
-4.14467e-06
-4.14468e-06
-4.14468e-06
-4.14469e-06
-4.1447e-06
-4.1447e-06
-4.1447e-06
-4.14471e-06
-4.14471e-06
-4.14472e-06
-4.14472e-06
-4.14472e-06
-4.14472e-06
-4.14472e-06
-4.14472e-06
-4.14473e-06
-4.14473e-06
-4.14473e-06
-4.14473e-06
-4.14473e-06
-4.14473e-06
-4.14473e-06
-4.14473e-06
-4.14473e-06
-4.14473e-06
-4.14473e-06
-4.14473e-06
-4.14473e-06
-4.14473e-06
-4.14473e-06
-4.14473e-06
-4.14473e-06
-4.14472e-06
-4.14472e-06
-4.14472e-06
-4.14472e-06
-4.14472e-06
-4.14472e-06
-4.14472e-06
-4.14472e-06
-4.14472e-06
-4.14471e-06
-4.14471e-06
-4.14471e-06
-4.14471e-06
-4.14471e-06
-4.14471e-06
-4.14471e-06
-4.14471e-06
-4.1447e-06
-4.1447e-06
-4.1447e-06
-4.1447e-06
-4.1447e-06
-4.1447e-06
-4.1447e-06
-4.1447e-06
-4.1447e-06
-4.1447e-06
-4.14469e-06
-4.14469e-06
-4.14469e-06
-4.14469e-06
-4.14469e-06
-4.14469e-06
-4.14469e-06
-4.14469e-06
-4.14469e-06
-4.14469e-06
-4.14469e-06
-4.14469e-06
-4.14469e-06
-4.14469e-06
-4.14469e-06
-4.14469e-06
-4.14469e-06
-4.14469e-06
-4.14469e-06
-4.14469e-06
-4.14469e-06
-4.14469e-06
-4.14469e-06
-4.14469e-06
-4.14469e-06
-4.14469e-06
-4.14469e-06
-4.14469e-06
-4.14469e-06
-4.14468e-06
-4.14468e-06
-4.14469e-06
-4.14469e-06
-4.14469e-06
-4.14469e-06
-4.14469e-06
-4.14469e-06
-4.14469e-06
-4.14469e-06
-4.14469e-06
-4.14469e-06
-4.14469e-06
-4.14469e-06
-4.14469e-06
-4.14469e-06
-4.14469e-06
-4.14469e-06
-4.14469e-06
-4.14469e-06
-4.14469e-06
-4.14469e-06
-4.14469e-06
-4.14469e-06
-4.14469e-06
-4.14469e-06
-4.14469e-06
-4.14469e-06
-4.14469e-06
-4.14469e-06
-4.14469e-06
-4.14469e-06
-4.14469e-06
-4.14469e-06
-4.14469e-06
-4.1447e-06
-4.14469e-06
-4.14469e-06
-4.1447e-06
-4.1447e-06
-4.14469e-06
-4.14469e-06
-4.14469e-06
-4.1447e-06
-4.1447e-06
-4.1447e-06
-4.1447e-06
-4.1447e-06
-4.1447e-06
-4.1447e-06
-4.1447e-06
-4.1447e-06
-4.1447e-06
-4.1447e-06
-4.1447e-06
-4.1447e-06
-4.1447e-06
-4.1447e-06
-4.1447e-06
-4.1447e-06
-4.1447e-06
-4.1447e-06
-4.1447e-06
-4.1447e-06
-4.1447e-06
-4.1447e-06
-4.1447e-06
-4.1447e-06
-4.1447e-06
-4.1447e-06
-4.1447e-06
-4.1447e-06
-4.1447e-06
-4.1447e-06
-4.1447e-06
-4.1447e-06
-4.1447e-06
-4.1447e-06
-4.1447e-06
-4.1447e-06
-4.1447e-06
-4.1447e-06
-4.1447e-06
-4.1447e-06
-4.1447e-06
-4.1447e-06
-4.1447e-06
-4.1447e-06
-4.1447e-06
-4.1447e-06
-4.1447e-06
-4.1447e-06
-4.1447e-06
-4.1447e-06
-4.1447e-06
-4.1447e-06
-4.1447e-06
-4.1447e-06
-4.1447e-06
-4.1447e-06
-4.1447e-06
-4.1447e-06
-4.1447e-06
-4.1447e-06
-4.1447e-06
-4.1447e-06
-4.1447e-06
-4.1447e-06
-4.1447e-06
-4.1447e-06
-4.1447e-06
-4.1447e-06
-4.1447e-06
-4.1447e-06
-4.1447e-06
-4.1447e-06
-4.1447e-06
-4.1447e-06
-4.1447e-06
-4.1447e-06
-4.1447e-06
-4.1447e-06
-4.1447e-06
-4.1447e-06
-4.1447e-06
-4.14469e-06
-4.1447e-06
-4.14469e-06
-4.14469e-06
-4.14469e-06
-4.14469e-06
-4.14469e-06
-4.14469e-06
-4.14469e-06
-4.14469e-06
-4.14469e-06
-4.14469e-06
-4.14469e-06
-4.14469e-06
-4.14469e-06
-4.14469e-06
-4.14469e-06
-4.14469e-06
-4.14469e-06
-4.14469e-06
-4.14469e-06
-4.14469e-06
-4.14469e-06
-4.14469e-06
-4.14469e-06
-4.14469e-06
-4.14469e-06
-4.14469e-06
-4.14469e-06
-4.14469e-06
-4.14468e-06
-4.14468e-06
-4.14468e-06
-4.14468e-06
-4.14468e-06
-4.14468e-06
-4.14468e-06
-4.14468e-06
-4.14468e-06
-4.14468e-06
-4.14468e-06
-4.14468e-06
-4.14468e-06
-4.14468e-06
-4.14468e-06
-4.14468e-06
-4.14468e-06
-4.14468e-06
-4.14468e-06
-4.14468e-06
-4.14468e-06
-4.14468e-06
-4.14468e-06
-4.14468e-06
-4.14468e-06
-4.14468e-06
-4.14468e-06
-4.14468e-06
-4.14467e-06
-4.14467e-06
-4.14467e-06
-4.14467e-06
-4.14467e-06
-4.14467e-06
-4.14467e-06
-4.14467e-06
-4.14467e-06
-4.14467e-06
-4.14467e-06
-4.14467e-06
-4.14467e-06
-4.14467e-06
-4.14467e-06
-4.14467e-06
-4.14467e-06
-4.14467e-06
-4.14467e-06
-4.14467e-06
-4.14467e-06
-4.14467e-06
-4.14467e-06
-4.14467e-06
-4.14467e-06
-4.14467e-06
-4.14467e-06
-4.14467e-06
-4.14467e-06
-4.14467e-06
-4.14467e-06
-4.14467e-06
-4.14467e-06
-4.14467e-06
-4.14467e-06
-4.14467e-06
-4.14467e-06
-4.14467e-06
-4.14467e-06
-4.14467e-06
-4.14467e-06
-4.14467e-06
-4.14467e-06
-4.14467e-06
-4.14467e-06
-4.14467e-06
-4.14467e-06
-4.14467e-06
-4.14467e-06
-4.14467e-06
-4.14467e-06
-4.14467e-06
-4.14467e-06
-4.14466e-06
-4.14467e-06
-4.14467e-06
-4.14466e-06
-4.14466e-06
-4.14466e-06
-4.14466e-06
-4.14466e-06
-4.14466e-06
-4.14466e-06
-4.14466e-06
-4.14466e-06
-4.14466e-06
-4.14466e-06
-4.14466e-06
-4.14466e-06
-4.14466e-06
-4.14466e-06
-4.14466e-06
-4.14466e-06
-4.14466e-06
-4.14466e-06
-4.14466e-06
-4.14466e-06
-4.14466e-06
-4.14466e-06
-4.14466e-06
-4.14466e-06
-4.14466e-06
-4.14466e-06
-4.14466e-06
-4.14466e-06
-4.14466e-06
-4.14466e-06
-4.14466e-06
-4.14465e-06
-4.14465e-06
-4.14465e-06
-4.14465e-06
-4.14465e-06
-4.14465e-06
-4.14465e-06
-4.14465e-06
-4.14465e-06
-4.14465e-06
-4.14465e-06
-4.14465e-06
-4.14465e-06
-4.14465e-06
-4.14465e-06
-4.14465e-06
-4.14465e-06
-4.14465e-06
-4.14465e-06
-4.14465e-06
-4.14465e-06
-4.14465e-06
-4.14465e-06
-4.14465e-06
-4.14465e-06
-4.14466e-06
-4.14466e-06
-4.14466e-06
-4.14466e-06
-4.14466e-06
-4.14466e-06
-4.14466e-06
-4.14466e-06
-4.14466e-06
-4.14467e-06
-4.14467e-06
-4.14467e-06
-4.14467e-06
-4.14467e-06
-4.14468e-06
-4.14468e-06
-4.14468e-06
-4.14469e-06
-4.14469e-06
-4.14469e-06
-4.1447e-06
-4.1447e-06
-4.14471e-06
-4.14472e-06
-4.14472e-06
-4.14473e-06
-4.14474e-06
-4.14474e-06
-4.14475e-06
-4.14476e-06
-4.14477e-06
-4.14479e-06
-4.1448e-06
-4.14481e-06
-4.14482e-06
-4.14484e-06
-4.14485e-06
-4.14487e-06
-4.14489e-06
-4.14491e-06
-4.14493e-06
-4.14495e-06
-4.14497e-06
-4.145e-06
-4.14503e-06
-4.14506e-06
-4.14509e-06
-4.14512e-06
-4.14515e-06
-4.14519e-06
-4.14523e-06
-4.14527e-06
-4.14532e-06
-4.14536e-06
-4.14542e-06
-4.14547e-06
-4.14553e-06
-4.14559e-06
-4.14566e-06
-4.14573e-06
-4.1458e-06
-4.14588e-06
-4.14596e-06
-4.14605e-06
-4.14615e-06
-4.14625e-06
-4.14635e-06
-4.14647e-06
-4.14659e-06
-4.14672e-06
-4.14685e-06
-4.147e-06
-4.14715e-06
-4.14731e-06
-4.14748e-06
-4.14766e-06
-4.14786e-06
-4.14806e-06
-4.14828e-06
-4.14851e-06
-4.14875e-06
-4.14901e-06
-4.14928e-06
-4.14957e-06
-4.14987e-06
-4.15019e-06
-4.15053e-06
-4.15089e-06
-4.15127e-06
-4.15167e-06
-4.15209e-06
-4.15253e-06
-4.153e-06
-4.1535e-06
-4.15402e-06
-4.15457e-06
-4.15516e-06
-4.15577e-06
-4.15641e-06
-4.15709e-06
-4.15781e-06
-4.15856e-06
-4.15936e-06
-4.16019e-06
-4.16107e-06
-4.16199e-06
-4.16296e-06
-4.16398e-06
-4.16505e-06
-4.16618e-06
-4.16736e-06
-4.1686e-06
-4.1699e-06
-4.17127e-06
-4.1727e-06
-4.1742e-06
-4.17578e-06
-4.17743e-06
-4.17916e-06
-4.18097e-06
-4.18287e-06
-4.18485e-06
-4.18693e-06
-4.1891e-06
-4.19138e-06
-4.19376e-06
-4.19624e-06
-4.19884e-06
-4.20155e-06
-4.20439e-06
-4.20735e-06
-4.21044e-06
-4.21367e-06
-4.21703e-06
-4.22054e-06
-4.2242e-06
-4.22802e-06
-4.23199e-06
-4.23614e-06
-4.24045e-06
-4.24495e-06
-4.24963e-06
-4.2545e-06
-4.25956e-06
-4.26483e-06
-4.27031e-06
-4.276e-06
-4.28192e-06
-4.28807e-06
-4.29446e-06
-4.30109e-06
-4.30798e-06
-4.31513e-06
-4.32254e-06
-4.33024e-06
-4.33821e-06
-4.34648e-06
-4.35506e-06
-4.36394e-06
-4.37314e-06
-4.38266e-06
-4.39253e-06
-4.40274e-06
-4.4133e-06
-4.42423e-06
-4.43554e-06
-4.44722e-06
-4.4593e-06
-4.47179e-06
-4.48469e-06
-4.49801e-06
-4.51177e-06
-4.52597e-06
-4.54063e-06
-4.55576e-06
-4.57136e-06
-4.58745e-06
-4.60405e-06
-4.62115e-06
-4.63878e-06
-4.65694e-06
-4.67564e-06
-4.69491e-06
-4.71474e-06
-4.73516e-06
-4.75616e-06
-4.77778e-06
-4.80001e-06
-4.82287e-06
-4.84638e-06
-4.87054e-06
-4.89537e-06
-4.92088e-06
-4.94709e-06
-4.974e-06
-5.00163e-06
-5.03e-06
-5.05911e-06
-5.08898e-06
-5.11962e-06
-5.15105e-06
-5.18328e-06
-5.21632e-06
-5.25019e-06
-5.2849e-06
-5.32047e-06
-5.3569e-06
-5.39422e-06
-5.43244e-06
-5.47156e-06
-5.51161e-06
-5.55261e-06
-5.59455e-06
-5.63747e-06
-5.68137e-06
-5.72626e-06
-5.77217e-06
-5.81911e-06
-5.86709e-06
-5.91613e-06
-5.96625e-06
-6.01745e-06
-6.06976e-06
-6.12318e-06
-6.17775e-06
-6.23346e-06
-6.29035e-06
-6.34842e-06
-6.40769e-06
-6.46818e-06
-6.5299e-06
-6.59288e-06
-6.65712e-06
-6.72265e-06
-6.78949e-06
-6.85765e-06
-6.92715e-06
-6.99801e-06
-7.07025e-06
-7.14388e-06
-7.21894e-06
-7.29543e-06
-7.37338e-06
-7.45281e-06
-7.53374e-06
-7.61619e-06
-7.70019e-06
-7.78575e-06
-7.8729e-06
-7.96167e-06
-8.05209e-06
-8.14416e-06
-8.23793e-06
-8.33342e-06
-8.43065e-06
-8.52966e-06
-8.63047e-06
-8.73312e-06
-8.83764e-06
-8.94405e-06
-9.0524e-06
-9.1627e-06
-9.275e-06
-9.38933e-06
-9.50571e-06
-9.62418e-06
-9.74476e-06
-9.86748e-06
-9.99236e-06
-1.01194e-05
-1.02487e-05
-1.03804e-05
-1.05138e-05
-1.06499e-05
-1.07894e-05
-1.09319e-05
-1.1077e-05
-1.12249e-05
-1.13754e-05
-1.15286e-05
-1.16845e-05
-1.18433e-05
-1.2005e-05
-1.21696e-05
-1.23373e-05
-1.2508e-05
-1.26818e-05
-1.28588e-05
-1.3039e-05
-1.32223e-05
-1.34088e-05
-1.35985e-05
-1.37913e-05
-1.39871e-05
-1.41859e-05
-1.43874e-05
-1.45917e-05
-1.47983e-05
-1.50071e-05
-1.52176e-05
-1.54295e-05
-1.56423e-05
-1.58551e-05
-1.60674e-05
-1.6278e-05
-1.6486e-05
-1.669e-05
-1.68883e-05
-1.70793e-05
-1.72606e-05
-1.74297e-05
-1.75838e-05
-1.77196e-05
-1.78332e-05
-1.79203e-05
-1.79764e-05
)
;

boundaryField
{
    fixedWall
    {
        type            calculated;
        value           uniform 0;
    }
    outlet
    {
        type            calculated;
        value           uniform -1.79962e-05;
    }
    defaultFaces
    {
        type            empty;
    }
}


// ************************************************************************* //
