/*--------------------------------*- C++ -*----------------------------------*\
| =========                 |                                                 |
| \\      /  F ield         | OpenFOAM: The Open Source CFD Toolbox           |
|  \\    /   O peration     | Version:  2406                                  |
|   \\  /    A nd           | Website:  www.openfoam.com                      |
|    \\/     M anipulation  |                                                 |
\*---------------------------------------------------------------------------*/
FoamFile
{
    version     2.0;
    format      ascii;
    arch        "LSB;label=32;scalar=64";
    class       volScalarField;
    location    "14.4";
    object      Qdot;
}
// * * * * * * * * * * * * * * * * * * * * * * * * * * * * * * * * * * * * * //

dimensions      [1 -1 -3 0 0 0 0];

internalField   nonuniform List<scalar> 
1000
(
4.98402e-14
4.98302e-14
-1.11065e-16
-7.93387e-16
3.80442e-09
1.14133e-08
2.90634e-08
9.23667e-08
2.63087e-07
6.4429e-07
1.44789e-06
3.01701e-06
5.88717e-06
1.08517e-05
1.90189e-05
3.18882e-05
5.13902e-05
7.99214e-05
0.000120407
0.000176276
0.000251439
0.00035028
0.000477557
0.000638351
0.000837946
0.00108172
0.00137504
0.00172311
0.00213083
0.00260272
0.00314277
0.00375432
0.00444
0.00520165
0.00604023
0.00695584
0.00794763
0.00901389
0.010152
0.0113584
0.012629
0.0139586
0.0153416
0.0167717
0.0182424
0.0197464
0.0212764
0.0228249
0.0243843
0.0259469
0.0275052
0.029052
0.0305802
0.0320831
0.0335544
0.0349882
0.0363791
0.0377221
0.0390131
0.040248
0.0414238
0.0425376
0.0435873
0.0445712
0.0454883
0.0463378
0.0471196
0.0478338
0.0484812
0.0490626
0.0495794
0.0500332
0.0504258
0.0507592
0.0510357
0.0512578
0.0514279
0.0515486
0.0516227
0.0516528
0.0516417
0.0515922
0.0515069
0.0513887
0.05124
0.0510635
0.0508618
0.0506372
0.0503921
0.0501286
0.0498491
0.0495554
0.0492496
0.0489335
0.0486087
0.0482769
0.0479397
0.0475984
0.0472543
0.0469087
0.0465627
0.0462173
0.0458734
0.045532
0.0451937
0.0448593
0.0445294
0.0442047
0.0438855
0.0435723
0.0432656
0.0429656
0.0426726
0.0423869
0.0421087
0.0418382
0.0415754
0.0413204
0.0410734
0.0408343
0.0406031
0.0403799
0.0401646
0.0399572
0.0397575
0.0395656
0.0393812
0.0392043
0.0390348
0.0388726
0.0387174
0.0385692
0.0384278
0.0382931
0.0381649
0.038043
0.0379273
0.0378176
0.0377137
0.0376155
0.0375228
0.0374355
0.0373534
0.0372763
0.037204
0.0371365
0.0370734
0.0370148
0.0369604
0.0369101
0.0368638
0.0368212
0.0367823
0.0367469
0.0367149
0.0366861
0.0366605
0.0366378
0.0366181
0.0366011
0.0365868
0.036575
0.0365656
0.0365586
0.0365538
0.0365511
0.0365505
0.0365519
0.0365551
0.0365601
0.0365668
0.0365751
0.036585
0.0365963
0.0366091
0.0366231
0.0366385
0.0366551
0.0366729
0.0366917
0.0367116
0.0367325
0.0367543
0.036777
0.0368006
0.036825
0.0368501
0.036876
0.0369026
0.0369298
0.0369576
0.036986
0.0370149
0.0370444
0.0370743
0.0371048
0.0371358
0.0371671
0.0371989
0.0372311
0.0372636
0.0372964
0.0373296
0.0373629
0.0373967
0.0374308
0.0374649
0.0374994
0.0375342
0.037569
0.0376042
0.0376394
0.037675
0.0377107
0.0377465
0.0377825
0.0378186
0.0378549
0.0378913
0.0379278
0.0379645
0.0380012
0.038038
0.038075
0.038112
0.0381491
0.0381863
0.0382236
0.0382609
0.0382984
0.0383359
0.0383733
0.0384109
0.0384486
0.0384862
0.0385241
0.0385619
0.0385998
0.0386378
0.0386758
0.0387139
0.038752
0.0387901
0.0388283
0.0388665
0.0389048
0.0389431
0.0389814
0.0390198
0.0390582
0.0390967
0.0391352
0.0391738
0.0392124
0.039251
0.0392897
0.0393284
0.0393672
0.0394059
0.0394448
0.0394836
0.0395225
0.0395615
0.0396005
0.0396395
0.0396786
0.0397176
0.0397567
0.0397959
0.0398351
0.0398744
0.0399137
0.039953
0.0399924
0.0400318
0.0400712
0.0401107
0.0401503
0.0401899
0.0402295
0.0402691
0.0403089
0.0403486
0.0403884
0.0404283
0.0404682
0.040508
0.040548
0.040588
0.0406281
0.0406683
0.0407085
0.0407485
0.0407888
0.0408291
0.0408695
0.0409099
0.0409503
0.0409908
0.0410314
0.041072
0.0411126
0.0411533
0.0411941
0.0412349
0.0412757
0.0413166
0.0413576
0.0413986
0.0414396
0.0414808
0.0415219
0.0415631
0.0416044
0.0416457
0.0416871
0.0417286
0.0417701
0.0418116
0.0418532
0.0418949
0.0419366
0.0419784
0.0420202
0.0420621
0.042104
0.042146
0.0421881
0.0422302
0.0422724
0.0423147
0.042357
0.0423993
0.0424417
0.0424842
0.0425268
0.0425693
0.042612
0.0426547
0.0426974
0.0427403
0.0427832
0.0428262
0.0428692
0.0429121
0.0429553
0.0429985
0.0430418
0.0430852
0.0431286
0.0431721
0.0432157
0.0432593
0.0433028
0.0433465
0.0433904
0.0434342
0.0434782
0.0435222
0.0435662
0.0436104
0.0436546
0.0436988
0.0437432
0.0437876
0.043832
0.0438765
0.0439211
0.0439658
0.0440105
0.0440553
0.0441002
0.0441451
0.0441902
0.0442352
0.0442804
0.0443256
0.0443709
0.0444162
0.0444616
0.0445071
0.0445527
0.0445984
0.0446441
0.0446898
0.0447357
0.0447816
0.0448276
0.0448737
0.0449198
0.044966
0.0450122
0.0450586
0.045105
0.0451515
0.045198
0.0452447
0.0452914
0.0453382
0.045385
0.045432
0.045479
0.0455261
0.0455732
0.0456204
0.0456677
0.0457151
0.0457626
0.0458101
0.0458577
0.0459054
0.0459531
0.0460009
0.0460488
0.0460968
0.0461449
0.046193
0.0462412
0.0462895
0.0463378
0.0463863
0.0464348
0.0464834
0.046532
0.0465808
0.0466296
0.0466783
0.0467273
0.0467764
0.0468255
0.0468747
0.046924
0.0469733
0.0470227
0.0470722
0.0471218
0.0471714
0.0472212
0.047271
0.0473209
0.0473708
0.0474209
0.0474711
0.0475213
0.0475716
0.047622
0.0476724
0.047723
0.0477734
0.0478241
0.0478749
0.0479258
0.0479768
0.0480278
0.0480789
0.0481301
0.0481813
0.0482327
0.0482841
0.0483356
0.0483872
0.0484389
0.0484906
0.0485425
0.0485944
0.0486464
0.0486985
0.0487507
0.048803
0.0488551
0.0489076
0.0489601
0.0490127
0.0490654
0.0491182
0.049171
0.049224
0.049277
0.0493301
0.0493833
0.0494366
0.04949
0.0495434
0.0495969
0.0496506
0.0497043
0.0497581
0.0498119
0.0498659
0.04992
0.0499741
0.0500283
0.0500827
0.0501371
0.0501916
0.0502462
0.0503008
0.0503556
0.0504105
0.0504654
0.0505205
0.0505756
0.0506308
0.0506861
0.0507415
0.050797
0.0508526
0.0509083
0.050964
0.0510199
0.0510758
0.0511319
0.051188
0.0512442
0.0513005
0.0513569
0.0514134
0.05147
0.0515267
0.0515835
0.0516404
0.0516973
0.0517544
0.0518116
0.0518688
0.0519262
0.0519836
0.0520411
0.0520988
0.0521565
0.0522143
0.0522722
0.0523302
0.0523883
0.0524465
0.0525048
0.0525632
0.0526217
0.0526803
0.052739
0.0527978
0.0528566
0.0529156
0.0529747
0.0530339
0.0530932
0.0531526
0.0532121
0.0532717
0.0533311
0.0533909
0.0534508
0.0535108
0.0535709
0.0536311
0.0536914
0.0537518
0.0538123
0.0538729
0.0539335
0.0539943
0.0540552
0.0541162
0.0541772
0.0542384
0.0542997
0.0543611
0.0544227
0.0544843
0.054546
0.0546078
0.0546697
0.0547318
0.0547939
0.0548562
0.0549185
0.054981
0.0550435
0.0551062
0.055169
0.0552319
0.0552949
0.055358
0.0554212
0.0554845
0.0555479
0.0556114
0.0556751
0.0557388
0.0558027
0.0558667
0.0559308
0.055995
0.0560593
0.0561237
0.0561882
0.0562528
0.0563176
0.0563825
0.0564474
0.0565125
0.0565777
0.056643
0.0567085
0.056774
0.0568397
0.0569054
0.0569713
0.0570373
0.0571034
0.0571697
0.057236
0.0573025
0.0573691
0.0574358
0.0575026
0.0575695
0.0576365
0.0577037
0.057771
0.0578384
0.0579059
0.0579735
0.0580413
0.0581092
0.0581772
0.0582453
0.0583135
0.0583819
0.0584504
0.058519
0.0585877
0.0586565
0.0587255
0.0587946
0.0588638
0.0589331
0.0590026
0.0590721
0.0591418
0.0592117
0.0592816
0.0593517
0.0594219
0.0594922
0.0595626
0.0596332
0.0597039
0.0597747
0.0598457
0.0599167
0.0599879
0.0600593
0.0601307
0.0602023
0.060274
0.0603458
0.0604178
0.0604899
0.0605621
0.0606345
0.060707
0.0607796
0.0608524
0.0609253
0.0609983
0.0610714
0.0611443
0.0612177
0.0612912
0.0613649
0.0614386
0.0615125
0.0615865
0.0616607
0.061735
0.0618094
0.061884
0.0619587
0.0620336
0.0621085
0.0621837
0.0622589
0.0623343
0.0624098
0.0624854
0.0625609
0.0626368
0.0627128
0.062789
0.0628652
0.0629417
0.0630182
0.063095
0.0631718
0.0632488
0.0633259
0.0634032
0.0634806
0.0635581
0.0636358
0.0637136
0.0637916
0.0638697
0.0639479
0.0640263
0.0641048
0.0641835
0.0642623
0.0643412
0.0644203
0.0644995
0.0645789
0.0646584
0.0647381
0.0648179
0.0648978
0.0649779
0.0650582
0.0651385
0.0652191
0.0652997
0.0653806
0.0654615
0.0655426
0.0656239
0.0657053
0.0657868
0.0658685
0.0659503
0.0660323
0.0661144
0.0661967
0.0662791
0.0663617
0.0664444
0.0665273
0.0666103
0.0666934
0.0667767
0.0668602
0.0669438
0.0670275
0.0671114
0.0671954
0.0672796
0.067364
0.0674484
0.0675331
0.0676178
0.0677028
0.0677879
0.0678731
0.0679585
0.068044
0.0681297
0.0682156
0.0683016
0.0683877
0.068474
0.0685605
0.0686472
0.068734
0.068821
0.0689081
0.0689955
0.069083
0.0691707
0.0692585
0.0693466
0.0694349
0.0695234
0.0696121
0.069701
0.0697901
0.0698795
0.0699691
0.070059
0.0701492
0.0702396
0.0703303
0.0704214
0.0705128
0.0706045
0.0706966
0.0707891
0.070882
0.0709753
0.0710691
0.0711634
0.0712582
0.0713536
0.0714495
0.0715462
0.0716434
0.0717415
0.0718402
0.0719399
0.0720404
0.0721418
0.0722442
0.0723478
0.0724524
0.0725583
0.0726655
0.0727741
0.0728842
0.0729959
0.0731094
0.0732246
0.0733418
0.073461
0.0735825
0.0737063
0.0738327
0.0739617
0.0740935
0.0742285
0.0743666
0.0745082
0.0746534
0.0748025
0.0749558
0.0751134
0.0752757
0.0754429
0.0756153
0.0757933
0.0759772
0.0761672
0.0763639
0.0765675
0.0767784
0.0769972
0.0772241
0.0774597
0.0777044
0.0779588
0.0782233
0.0784985
0.0787849
0.0790832
0.079394
0.0797178
0.0800553
0.0804073
0.0807744
0.0811573
0.0815569
0.0819738
0.082409
0.0828631
0.0833372
0.083832
0.0843485
0.0848875
0.0854502
0.0860373
0.08665
0.0872892
0.087956
0.0886514
0.0893764
0.0901322
0.0909199
0.0917404
0.0925949
0.0934845
0.0944103
0.0953733
0.0963745
0.0974151
0.0984959
0.099618
0.100782
0.101989
0.10324
0.104536
0.105877
0.107263
0.108695
0.110174
0.111699
0.11327
0.114887
0.116551
0.118259
0.120011
0.121806
0.123643
0.12552
0.127434
0.129383
0.131364
0.133374
0.135409
0.137465
0.139537
0.141619
0.143706
0.145791
0.147867
0.149926
0.15196
0.15396
0.155915
0.157817
0.159653
0.161411
0.16308
0.164647
0.166097
0.167417
0.168593
0.16961
0.170452
0.171105
0.171553
0.171782
0.171776
0.171521
0.171003
0.17021
0.16913
0.167753
0.166068
0.164069
0.16175
0.159109
0.156143
0.152856
0.149251
0.145336
0.141121
0.13662
0.131849
0.126829
0.121582
0.116134
0.110513
0.104752
0.0988822
0.0929398
0.0869611
0.0809834
0.0750443
0.0691815
0.0634316
0.0578299
0.0524097
0.0472018
0.0422339
0.03753
0.0331103
0.0289907
0.0251847
0.0217243
0.0185519
0.015695
0.0131477
0.0108998
0.00893755
0.00724394
0.00579953
0.00458304
0.00357198
0.00274337
0.00207431
0.00154253
0.00112689
0.000807792
0.000567434
0.000390038
0.000261938
0.000171572
0.000109406
6.77791e-05
4.07041e-05
2.36367e-05
1.32361e-05
7.12517e-06
3.67613e-06
1.81041e-06
8.48822e-07
3.76413e-07
1.56792e-07
6.14429e-08
2.23121e-08
7.9128e-09
2.85332e-09
8.44434e-10
2.37677e-10
2.37876e-10
-1.45749e-17
-2.37558e-18
-3.21402e-19
-1.61761e-10
0
0
-5.35911e-12
)
;

boundaryField
{
    fixedWall
    {
        type            calculated;
        value           uniform 0;
    }
    outlet
    {
        type            calculated;
        value           uniform 0;
    }
    defaultFaces
    {
        type            empty;
    }
}


// ************************************************************************* //
