/*--------------------------------*- C++ -*----------------------------------*\
| =========                 |                                                 |
| \\      /  F ield         | OpenFOAM: The Open Source CFD Toolbox           |
|  \\    /   O peration     | Version:  2406                                  |
|   \\  /    A nd           | Website:  www.openfoam.com                      |
|    \\/     M anipulation  |                                                 |
\*---------------------------------------------------------------------------*/
FoamFile
{
    version     2.0;
    format      ascii;
    arch        "LSB;label=32;scalar=64";
    class       volVectorField;
    location    "0.4";
    object      U;
}
// * * * * * * * * * * * * * * * * * * * * * * * * * * * * * * * * * * * * * //

dimensions      [0 1 -1 0 0 0 0];

internalField   nonuniform List<vector> 
1000
(
(-0.000388303 0 0)
(-0.00114447 0 0)
(-0.00216445 0 0)
(-0.00328103 0 0)
(-0.00441095 0 0)
(-0.00552176 0 0)
(-0.00659745 0 0)
(-0.007626 0 0)
(-0.00859786 0 0)
(-0.00950593 0 0)
(-0.0103453 0 0)
(-0.0111128 0 0)
(-0.0118067 0 0)
(-0.0124267 0 0)
(-0.0129733 0 0)
(-0.0134476 0 0)
(-0.0138517 0 0)
(-0.0141904 0 0)
(-0.0144682 0 0)
(-0.0146886 0 0)
(-0.0148563 0 0)
(-0.0149767 0 0)
(-0.0150557 0 0)
(-0.015097 0 0)
(-0.0151087 0 0)
(-0.0150948 0 0)
(-0.0150599 0 0)
(-0.0150099 0 0)
(-0.0149484 0 0)
(-0.0148796 0 0)
(-0.0148067 0 0)
(-0.0147325 0 0)
(-0.0146593 0 0)
(-0.014589 0 0)
(-0.0145229 0 0)
(-0.0144618 0 0)
(-0.0144062 0 0)
(-0.0143565 0 0)
(-0.0143125 0 0)
(-0.0142739 0 0)
(-0.0142405 0 0)
(-0.0142118 0 0)
(-0.0141872 0 0)
(-0.0141662 0 0)
(-0.0141482 0 0)
(-0.0141326 0 0)
(-0.014119 0 0)
(-0.0141065 0 0)
(-0.014095 0 0)
(-0.0140838 0 0)
(-0.0140734 0 0)
(-0.0140627 0 0)
(-0.0140532 0 0)
(-0.0140345 0 0)
(-0.0140145 0 0)
(-0.0140069 0 0)
(-0.0139474 0 0)
(-0.0140173 0 0)
(-0.0140971 0 0)
(-0.0140558 0 0)
(-0.0110021 0 0)
(0.00191628 0 0)
(0.0259052 0 0)
(0.0501312 0 0)
(0.0666051 0 0)
(0.0759693 0 0)
(0.0808576 0 0)
(0.0832305 0 0)
(0.0844025 0 0)
(0.0849636 0 0)
(0.0852444 0 0)
(0.0854288 0 0)
(0.0855007 0 0)
(0.0855104 0 0)
(0.085612 0 0)
(0.0855305 0 0)
(0.0856125 0 0)
(0.0855978 0 0)
(0.0855347 0 0)
(0.0856514 0 0)
(0.0855842 0 0)
(0.0855567 0 0)
(0.0856234 0 0)
(0.0855939 0 0)
(0.0856181 0 0)
(0.0855435 0 0)
(0.0856619 0 0)
(0.0856162 0 0)
(0.0855239 0 0)
(0.0856452 0 0)
(0.0856503 0 0)
(0.0855592 0 0)
(0.0856035 0 0)
(0.0855962 0 0)
(0.0856583 0 0)
(0.0856167 0 0)
(0.0855345 0 0)
(0.0856846 0 0)
(0.0855809 0 0)
(0.0856495 0 0)
(0.0855451 0 0)
(0.0856835 0 0)
(0.0856442 0 0)
(0.0855151 0 0)
(0.0857278 0 0)
(0.0855902 0 0)
(0.0855845 0 0)
(0.0857088 0 0)
(0.0855414 0 0)
(0.0856238 0 0)
(0.0857123 0 0)
(0.085527 0 0)
(0.0857018 0 0)
(0.0855745 0 0)
(0.085698 0 0)
(0.0856227 0 0)
(0.0855573 0 0)
(0.0857346 0 0)
(0.0855527 0 0)
(0.0856934 0 0)
(0.0856606 0 0)
(0.0855559 0 0)
(0.0856848 0 0)
(0.0856804 0 0)
(0.0856201 0 0)
(0.0856267 0 0)
(0.0856373 0 0)
(0.0856923 0 0)
(0.0856465 0 0)
(0.085576 0 0)
(0.0857125 0 0)
(0.0856675 0 0)
(0.0856131 0 0)
(0.0856472 0 0)
(0.0857017 0 0)
(0.085593 0 0)
(0.0856989 0 0)
(0.0856997 0 0)
(0.0855329 0 0)
(0.0857818 0 0)
(0.0856588 0 0)
(0.085559 0 0)
(0.0857437 0 0)
(0.0856508 0 0)
(0.0856941 0 0)
(0.0855962 0 0)
(0.0857374 0 0)
(0.0856686 0 0)
(0.0856048 0 0)
(0.085731 0 0)
(0.0856884 0 0)
(0.0855965 0 0)
(0.0857163 0 0)
(0.0857399 0 0)
(0.0855475 0 0)
(0.0857884 0 0)
(0.0856935 0 0)
(0.0855638 0 0)
(0.0857947 0 0)
(0.0856352 0 0)
(0.0857056 0 0)
(0.0856809 0 0)
(0.085625 0 0)
(0.0857797 0 0)
(0.0856062 0 0)
(0.085743 0 0)
(0.0857237 0 0)
(0.0855667 0 0)
(0.0858165 0 0)
(0.0856931 0 0)
(0.0856059 0 0)
(0.085778 0 0)
(0.0856365 0 0)
(0.0857494 0 0)
(0.0856948 0 0)
(0.085694 0 0)
(0.0856752 0 0)
(0.0857215 0 0)
(0.0857476 0 0)
(0.0856228 0 0)
(0.0857747 0 0)
(0.0857067 0 0)
(0.0856218 0 0)
(0.0858143 0 0)
(0.0856996 0 0)
(0.0856431 0 0)
(0.0857548 0 0)
(0.0857551 0 0)
(0.0856697 0 0)
(0.0856896 0 0)
(0.0857709 0 0)
(0.0857148 0 0)
(0.0856712 0 0)
(0.0857787 0 0)
(0.0856912 0 0)
(0.0857471 0 0)
(0.0857175 0 0)
(0.0856503 0 0)
(0.0858498 0 0)
(0.0856267 0 0)
(0.0857979 0 0)
(0.0857232 0 0)
(0.0856634 0 0)
(0.0858027 0 0)
(0.0857133 0 0)
(0.0857258 0 0)
(0.0857634 0 0)
(0.0857094 0 0)
(0.0857244 0 0)
(0.0857734 0 0)
(0.0857339 0 0)
(0.0857218 0 0)
(0.0857309 0 0)
(0.0858053 0 0)
(0.0857096 0 0)
(0.0857132 0 0)
(0.0857906 0 0)
(0.0857464 0 0)
(0.0857086 0 0)
(0.085807 0 0)
(0.0857573 0 0)
(0.0856496 0 0)
(0.0858698 0 0)
(0.085713 0 0)
(0.0857513 0 0)
(0.0857367 0 0)
(0.0857889 0 0)
(0.0857871 0 0)
(0.0856782 0 0)
(0.0858406 0 0)
(0.0857084 0 0)
(0.085824 0 0)
(0.0857371 0 0)
(0.085715 0 0)
(0.0858205 0 0)
(0.0857957 0 0)
(0.0857022 0 0)
(0.0857869 0 0)
(0.0858004 0 0)
(0.0857656 0 0)
(0.0857436 0 0)
(0.0857403 0 0)
(0.0858698 0 0)
(0.0857226 0 0)
(0.0857949 0 0)
(0.0857463 0 0)
(0.0858364 0 0)
(0.0857499 0 0)
(0.0857986 0 0)
(0.0857649 0 0)
(0.0857487 0 0)
(0.0858399 0 0)
(0.0857824 0 0)
(0.0857785 0 0)
(0.085825 0 0)
(0.0857376 0 0)
(0.0857487 0 0)
(0.085905 0 0)
(0.0857007 0 0)
(0.0858527 0 0)
(0.0857978 0 0)
(0.0857227 0 0)
(0.0858621 0 0)
(0.0858133 0 0)
(0.0857481 0 0)
(0.0858545 0 0)
(0.0857933 0 0)
(0.0857523 0 0)
(0.0858657 0 0)
(0.0857511 0 0)
(0.0858671 0 0)
(0.0858078 0 0)
(0.0857183 0 0)
(0.0859227 0 0)
(0.0857918 0 0)
(0.0857215 0 0)
(0.0859172 0 0)
(0.0857799 0 0)
(0.0858232 0 0)
(0.0857937 0 0)
(0.0857821 0 0)
(0.0859045 0 0)
(0.0857776 0 0)
(0.0858014 0 0)
(0.0858885 0 0)
(0.0857619 0 0)
(0.0858291 0 0)
(0.0858825 0 0)
(0.0857105 0 0)
(0.085937 0 0)
(0.085813 0 0)
(0.0857786 0 0)
(0.0858745 0 0)
(0.0858383 0 0)
(0.0858011 0 0)
(0.0858525 0 0)
(0.0858127 0 0)
(0.0858835 0 0)
(0.0858314 0 0)
(0.0857741 0 0)
(0.0859086 0 0)
(0.085807 0 0)
(0.0858742 0 0)
(0.0857941 0 0)
(0.0858927 0 0)
(0.0858506 0 0)
(0.0857706 0 0)
(0.0859321 0 0)
(0.0857894 0 0)
(0.0859085 0 0)
(0.08584 0 0)
(0.0857884 0 0)
(0.0859266 0 0)
(0.085792 0 0)
(0.0859217 0 0)
(0.085857 0 0)
(0.0857458 0 0)
(0.0859917 0 0)
(0.0858336 0 0)
(0.0857813 0 0)
(0.0859325 0 0)
(0.0858826 0 0)
(0.0857975 0 0)
(0.0859114 0 0)
(0.0858869 0 0)
(0.0857597 0 0)
(0.0859818 0 0)
(0.0858631 0 0)
(0.0857603 0 0)
(0.0859866 0 0)
(0.0858565 0 0)
(0.0858017 0 0)
(0.0859709 0 0)
(0.0858481 0 0)
(0.0858399 0 0)
(0.0858943 0 0)
(0.0858254 0 0)
(0.0859788 0 0)
(0.0858504 0 0)
(0.0858205 0 0)
(0.0859724 0 0)
(0.0858121 0 0)
(0.0859424 0 0)
(0.0858531 0 0)
(0.085897 0 0)
(0.0858618 0 0)
(0.0859023 0 0)
(0.0859322 0 0)
(0.0858163 0 0)
(0.0859665 0 0)
(0.0858215 0 0)
(0.0859653 0 0)
(0.0858879 0 0)
(0.0858385 0 0)
(0.0859615 0 0)
(0.0858337 0 0)
(0.0859656 0 0)
(0.085904 0 0)
(0.0858182 0 0)
(0.0860108 0 0)
(0.0858437 0 0)
(0.0858789 0 0)
(0.0859502 0 0)
(0.0859121 0 0)
(0.0858579 0 0)
(0.0859704 0 0)
(0.0859009 0 0)
(0.0858493 0 0)
(0.0859828 0 0)
(0.0859165 0 0)
(0.0859036 0 0)
(0.0858268 0 0)
(0.0860383 0 0)
(0.0858975 0 0)
(0.0858679 0 0)
(0.0859844 0 0)
(0.08585 0 0)
(0.0859807 0 0)
(0.0859246 0 0)
(0.0858409 0 0)
(0.0860442 0 0)
(0.0858894 0 0)
(0.0858892 0 0)
(0.0859144 0 0)
(0.0859722 0 0)
(0.0859351 0 0)
(0.0859064 0 0)
(0.0859559 0 0)
(0.085934 0 0)
(0.0859003 0 0)
(0.0858983 0 0)
(0.0860385 0 0)
(0.0859101 0 0)
(0.0858553 0 0)
(0.0860565 0 0)
(0.0858848 0 0)
(0.0859139 0 0)
(0.0859664 0 0)
(0.0859347 0 0)
(0.0859776 0 0)
(0.0858777 0 0)
(0.0860147 0 0)
(0.0859367 0 0)
(0.0858866 0 0)
(0.0860229 0 0)
(0.0858919 0 0)
(0.0860106 0 0)
(0.0859392 0 0)
(0.0858786 0 0)
(0.0860757 0 0)
(0.0859046 0 0)
(0.085907 0 0)
(0.0859666 0 0)
(0.0860002 0 0)
(0.0859536 0 0)
(0.0859485 0 0)
(0.0859527 0 0)
(0.0859812 0 0)
(0.085915 0 0)
(0.0860301 0 0)
(0.0859626 0 0)
(0.0858813 0 0)
(0.0860693 0 0)
(0.085921 0 0)
(0.0859505 0 0)
(0.085999 0 0)
(0.0859899 0 0)
(0.0859684 0 0)
(0.0859289 0 0)
(0.0859858 0 0)
(0.0859337 0 0)
(0.0860746 0 0)
(0.0859407 0 0)
(0.0859297 0 0)
(0.0860284 0 0)
(0.0859551 0 0)
(0.0859877 0 0)
(0.0860074 0 0)
(0.0859211 0 0)
(0.086031 0 0)
(0.0859915 0 0)
(0.0859294 0 0)
(0.0860468 0 0)
(0.0859204 0 0)
(0.0860525 0 0)
(0.0860114 0 0)
(0.0858938 0 0)
(0.0860924 0 0)
(0.0859643 0 0)
(0.0859276 0 0)
(0.0860819 0 0)
(0.08593 0 0)
(0.0860475 0 0)
(0.0859938 0 0)
(0.0859202 0 0)
(0.0860792 0 0)
(0.085979 0 0)
(0.0860333 0 0)
(0.085928 0 0)
(0.0860315 0 0)
(0.0860275 0 0)
(0.0859897 0 0)
(0.0859714 0 0)
(0.0860232 0 0)
(0.0860595 0 0)
(0.0859028 0 0)
(0.0861186 0 0)
(0.0859681 0 0)
(0.0859767 0 0)
(0.0860475 0 0)
(0.0860389 0 0)
(0.0859833 0 0)
(0.0859627 0 0)
(0.0861222 0 0)
(0.0859295 0 0)
(0.0860395 0 0)
(0.0860545 0 0)
(0.0859287 0 0)
(0.0861308 0 0)
(0.0859729 0 0)
(0.085975 0 0)
(0.086093 0 0)
(0.0859776 0 0)
(0.0860758 0 0)
(0.0860038 0 0)
(0.0859401 0 0)
(0.0861467 0 0)
(0.0859841 0 0)
(0.0860502 0 0)
(0.0860068 0 0)
(0.0860061 0 0)
(0.0860662 0 0)
(0.0860186 0 0)
(0.0860656 0 0)
(0.0859655 0 0)
(0.0861072 0 0)
(0.0860422 0 0)
(0.0859364 0 0)
(0.086154 0 0)
(0.0860003 0 0)
(0.0859997 0 0)
(0.0860845 0 0)
(0.0860672 0 0)
(0.0859739 0 0)
(0.0860671 0 0)
(0.0860758 0 0)
(0.0859846 0 0)
(0.0861079 0 0)
(0.0859794 0 0)
(0.0861147 0 0)
(0.0860609 0 0)
(0.0859784 0 0)
(0.086105 0 0)
(0.0860643 0 0)
(0.0859774 0 0)
(0.0861358 0 0)
(0.0860312 0 0)
(0.086009 0 0)
(0.0860941 0 0)
(0.0860787 0 0)
(0.0860401 0 0)
(0.0860166 0 0)
(0.0861103 0 0)
(0.0860256 0 0)
(0.0860749 0 0)
(0.0860914 0 0)
(0.0860191 0 0)
(0.0861045 0 0)
(0.0860358 0 0)
(0.0860499 0 0)
(0.0860783 0 0)
(0.0860538 0 0)
(0.0860932 0 0)
(0.0860649 0 0)
(0.086051 0 0)
(0.0860778 0 0)
(0.0860915 0 0)
(0.0860184 0 0)
(0.0861471 0 0)
(0.0860418 0 0)
(0.0859951 0 0)
(0.0861943 0 0)
(0.086042 0 0)
(0.0860028 0 0)
(0.0861883 0 0)
(0.0860266 0 0)
(0.0860374 0 0)
(0.0861361 0 0)
(0.0860538 0 0)
(0.0861088 0 0)
(0.0860416 0 0)
(0.0861275 0 0)
(0.0860831 0 0)
(0.0860033 0 0)
(0.0861968 0 0)
(0.0860307 0 0)
(0.0860632 0 0)
(0.0861265 0 0)
(0.0861136 0 0)
(0.0860421 0 0)
(0.0860614 0 0)
(0.0861631 0 0)
(0.0860435 0 0)
(0.0860808 0 0)
(0.0861659 0 0)
(0.0860431 0 0)
(0.0860759 0 0)
(0.0861325 0 0)
(0.086095 0 0)
(0.0860535 0 0)
(0.0861535 0 0)
(0.0861032 0 0)
(0.0860335 0 0)
(0.0861655 0 0)
(0.0860774 0 0)
(0.0861135 0 0)
(0.0860898 0 0)
(0.086075 0 0)
(0.0861917 0 0)
(0.0860566 0 0)
(0.0860647 0 0)
(0.0861509 0 0)
(0.08611 0 0)
(0.0860752 0 0)
(0.0861652 0 0)
(0.0861081 0 0)
(0.0860298 0 0)
(0.0862097 0 0)
(0.0860617 0 0)
(0.0861229 0 0)
(0.0861132 0 0)
(0.086063 0 0)
(0.0862237 0 0)
(0.086051 0 0)
(0.0860993 0 0)
(0.0861567 0 0)
(0.0860846 0 0)
(0.0861494 0 0)
(0.0861016 0 0)
(0.0861116 0 0)
(0.0861606 0 0)
(0.0860706 0 0)
(0.0861696 0 0)
(0.0861274 0 0)
(0.0860377 0 0)
(0.0862303 0 0)
(0.0861114 0 0)
(0.0860388 0 0)
(0.0862371 0 0)
(0.0860767 0 0)
(0.0861465 0 0)
(0.0861015 0 0)
(0.086141 0 0)
(0.0861458 0 0)
(0.0860816 0 0)
(0.0861837 0 0)
(0.0861144 0 0)
(0.0861339 0 0)
(0.0861763 0 0)
(0.0860788 0 0)
(0.086108 0 0)
(0.0862596 0 0)
(0.0860725 0 0)
(0.0860581 0 0)
(0.0861867 0 0)
(0.0861569 0 0)
(0.0861749 0 0)
(0.0861174 0 0)
(0.0860793 0 0)
(0.0862024 0 0)
(0.0861146 0 0)
(0.0861923 0 0)
(0.0861156 0 0)
(0.0860883 0 0)
(0.0862397 0 0)
(0.0861005 0 0)
(0.0861144 0 0)
(0.0862003 0 0)
(0.0861819 0 0)
(0.0860805 0 0)
(0.0861569 0 0)
(0.0861864 0 0)
(0.0860684 0 0)
(0.0862401 0 0)
(0.0861462 0 0)
(0.0860732 0 0)
(0.0862575 0 0)
(0.0861165 0 0)
(0.0861053 0 0)
(0.0862122 0 0)
(0.0861474 0 0)
(0.086141 0 0)
(0.0861998 0 0)
(0.0861166 0 0)
(0.08612 0 0)
(0.0862658 0 0)
(0.0860794 0 0)
(0.086151 0 0)
(0.0862042 0 0)
(0.0861595 0 0)
(0.0861282 0 0)
(0.0862117 0 0)
(0.0861497 0 0)
(0.0861095 0 0)
(0.086241 0 0)
(0.0861104 0 0)
(0.0862247 0 0)
(0.0861554 0 0)
(0.0860962 0 0)
(0.0862782 0 0)
(0.0860987 0 0)
(0.0861816 0 0)
(0.0861818 0 0)
(0.0861084 0 0)
(0.0862834 0 0)
(0.0860986 0 0)
(0.0861281 0 0)
(0.0862986 0 0)
(0.0861045 0 0)
(0.0861308 0 0)
(0.086238 0 0)
(0.0861478 0 0)
(0.0862234 0 0)
(0.0861266 0 0)
(0.0861368 0 0)
(0.0862989 0 0)
(0.0861048 0 0)
(0.0861402 0 0)
(0.086237 0 0)
(0.0861742 0 0)
(0.0861646 0 0)
(0.0862034 0 0)
(0.0861498 0 0)
(0.0862326 0 0)
(0.0861669 0 0)
(0.0861324 0 0)
(0.086245 0 0)
(0.0861598 0 0)
(0.0861892 0 0)
(0.0862145 0 0)
(0.0861461 0 0)
(0.0862249 0 0)
(0.0861683 0 0)
(0.0861952 0 0)
(0.0861766 0 0)
(0.0861581 0 0)
(0.086229 0 0)
(0.0862287 0 0)
(0.0861638 0 0)
(0.0861385 0 0)
(0.0862524 0 0)
(0.0861732 0 0)
(0.0862277 0 0)
(0.086152 0 0)
(0.0861899 0 0)
(0.0862163 0 0)
(0.0862033 0 0)
(0.0862133 0 0)
(0.0861301 0 0)
(0.0862647 0 0)
(0.0861972 0 0)
(0.0861163 0 0)
(0.0863075 0 0)
(0.086167 0 0)
(0.0861493 0 0)
(0.0862517 0 0)
(0.0861746 0 0)
(0.0862824 0 0)
(0.0861522 0 0)
(0.08611 0 0)
(0.0863061 0 0)
(0.0862025 0 0)
(0.0861474 0 0)
(0.0862323 0 0)
(0.0862423 0 0)
(0.0861912 0 0)
(0.0861462 0 0)
(0.0862695 0 0)
(0.0862152 0 0)
(0.0861736 0 0)
(0.0862462 0 0)
(0.0861919 0 0)
(0.0861496 0 0)
(0.0862952 0 0)
(0.0861991 0 0)
(0.0861398 0 0)
(0.0863141 0 0)
(0.086168 0 0)
(0.0861736 0 0)
(0.0862579 0 0)
(0.0862403 0 0)
(0.0861695 0 0)
(0.0861905 0 0)
(0.0862635 0 0)
(0.0861933 0 0)
(0.0862205 0 0)
(0.0862233 0 0)
(0.0862046 0 0)
(0.0862607 0 0)
(0.0861614 0 0)
(0.0862019 0 0)
(0.086257 0 0)
(0.0862531 0 0)
(0.086192 0 0)
(0.0861632 0 0)
(0.0863017 0 0)
(0.0861692 0 0)
(0.0862671 0 0)
(0.0861946 0 0)
(0.0862299 0 0)
(0.0862138 0 0)
(0.0861824 0 0)
(0.0863185 0 0)
(0.0861682 0 0)
(0.0862159 0 0)
(0.0862576 0 0)
(0.0862274 0 0)
(0.0861808 0 0)
(0.0862103 0 0)
(0.0863369 0 0)
(0.086133 0 0)
(0.0862074 0 0)
(0.086309 0 0)
(0.0861704 0 0)
(0.0862302 0 0)
(0.0862823 0 0)
(0.0861915 0 0)
(0.0862094 0 0)
(0.0862544 0 0)
(0.0862182 0 0)
(0.0862947 0 0)
(0.0861812 0 0)
(0.0861892 0 0)
(0.0862859 0 0)
(0.0862222 0 0)
(0.0862734 0 0)
(0.0861734 0 0)
(0.0862199 0 0)
(0.0863223 0 0)
(0.0861676 0 0)
(0.0862104 0 0)
(0.0863365 0 0)
(0.0861587 0 0)
(0.0861906 0 0)
(0.086366 0 0)
(0.0861628 0 0)
(0.0862107 0 0)
(0.0862604 0 0)
(0.0862813 0 0)
(0.0862304 0 0)
(0.0861462 0 0)
(0.0863587 0 0)
(0.0861887 0 0)
(0.086261 0 0)
(0.086229 0 0)
(0.0862026 0 0)
(0.0862673 0 0)
(0.0862825 0 0)
(0.0862338 0 0)
(0.0861634 0 0)
(0.0863436 0 0)
(0.0862154 0 0)
(0.0861837 0 0)
(0.0863087 0 0)
(0.0862473 0 0)
(0.086188 0 0)
(0.0863199 0 0)
(0.0862005 0 0)
(0.0862602 0 0)
(0.0862369 0 0)
(0.0862109 0 0)
(0.0863251 0 0)
(0.0861942 0 0)
(0.0862415 0 0)
(0.0863111 0 0)
(0.0861908 0 0)
(0.0862518 0 0)
(0.0862629 0 0)
(0.0862726 0 0)
(0.0862161 0 0)
(0.0862557 0 0)
(0.0862463 0 0)
(0.0862013 0 0)
(0.0863703 0 0)
(0.086172 0 0)
(0.086252 0 0)
(0.0862609 0 0)
(0.0862784 0 0)
(0.0862377 0 0)
(0.0862071 0 0)
(0.0863055 0 0)
(0.0862357 0 0)
(0.0862579 0 0)
(0.0862885 0 0)
(0.0862068 0 0)
(0.0862071 0 0)
(0.0863718 0 0)
(0.0861789 0 0)
(0.0862165 0 0)
(0.0863236 0 0)
(0.0862317 0 0)
(0.0862964 0 0)
(0.0861971 0 0)
(0.0862546 0 0)
(0.0862721 0 0)
(0.0862889 0 0)
(0.0862388 0 0)
(0.0862108 0 0)
(0.0863171 0 0)
(0.0862339 0 0)
(0.0863 0 0)
(0.0862065 0 0)
(0.0862388 0 0)
(0.0863118 0 0)
(0.0862376 0 0)
(0.0862884 0 0)
(0.086237 0 0)
(0.0862232 0 0)
(0.0863443 0 0)
(0.0861895 0 0)
(0.0862442 0 0)
(0.0863161 0 0)
(0.0862474 0 0)
(0.0862456 0 0)
(0.086277 0 0)
(0.0862698 0 0)
(0.0862297 0 0)
(0.0862935 0 0)
(0.0862418 0 0)
(0.0862816 0 0)
(0.0862613 0 0)
(0.0862921 0 0)
(0.0861951 0 0)
(0.0862832 0 0)
(0.0862862 0 0)
(0.0862542 0 0)
(0.086257 0 0)
(0.0862172 0 0)
(0.0863928 0 0)
(0.0861743 0 0)
(0.0862648 0 0)
(0.0862939 0 0)
(0.0862135 0 0)
(0.0863112 0 0)
(0.0862798 0 0)
(0.0862278 0 0)
(0.0863203 0 0)
(0.0862204 0 0)
(0.0862329 0 0)
(0.0863248 0 0)
(0.0862928 0 0)
(0.0862114 0 0)
(0.0862618 0 0)
(0.0863025 0 0)
(0.0862047 0 0)
(0.0863735 0 0)
(0.0862103 0 0)
(0.0862201 0 0)
(0.0863276 0 0)
(0.0863014 0 0)
(0.0862064 0 0)
(0.086231 0 0)
(0.086387 0 0)
(0.0861953 0 0)
(0.0862396 0 0)
(0.0863261 0 0)
(0.0862464 0 0)
(0.0862599 0 0)
(0.0862781 0 0)
(0.0863216 0 0)
(0.0861914 0 0)
(0.0862645 0 0)
(0.0863203 0 0)
(0.0862603 0 0)
(0.0862748 0 0)
(0.0862576 0 0)
(0.0862658 0 0)
(0.0863169 0 0)
(0.0862264 0 0)
(0.0862335 0 0)
(0.0863317 0 0)
(0.0862448 0 0)
(0.0863165 0 0)
(0.0862338 0 0)
(0.0862366 0 0)
(0.0863564 0 0)
(0.0862146 0 0)
(0.086249 0 0)
(0.0863271 0 0)
(0.0862447 0 0)
(0.0862822 0 0)
(0.0862952 0 0)
(0.0862241 0 0)
(0.0862822 0 0)
(0.0862921 0 0)
(0.0862725 0 0)
(0.0862609 0 0)
(0.0862905 0 0)
(0.0862745 0 0)
(0.0862373 0 0)
(0.0863288 0 0)
(0.0862275 0 0)
(0.0863054 0 0)
(0.0862598 0 0)
(0.0862247 0 0)
(0.0863308 0 0)
(0.0862529 0 0)
(0.0863313 0 0)
(0.0862196 0 0)
(0.0862522 0 0)
(0.0863002 0 0)
(0.0862963 0 0)
(0.0862516 0 0)
(0.08631 0 0)
(0.0862533 0 0)
(0.0862269 0 0)
(0.0863195 0 0)
(0.0863042 0 0)
(0.0862197 0 0)
(0.0862392 0 0)
(0.0863891 0 0)
(0.086208 0 0)
(0.0862468 0 0)
(0.0863064 0 0)
(0.0862679 0 0)
(0.0863193 0 0)
(0.0862291 0 0)
(0.0862617 0 0)
(0.0862798 0 0)
(0.0863168 0 0)
(0.086251 0 0)
(0.086296 0 0)
(0.0862461 0 0)
(0.0862503 0 0)
(0.0863201 0 0)
(0.0862582 0 0)
(0.0862873 0 0)
(0.0862452 0 0)
(0.0862921 0 0)
(0.0862732 0 0)
)
;

boundaryField
{
    fixedWall
    {
        type            fixedValue;
        value           uniform (0 0 0);
    }
    outlet
    {
        type            pressureInletOutletVelocity;
        value           uniform (0.0862732 0 0);
    }
    defaultFaces
    {
        type            empty;
    }
}


// ************************************************************************* //
