/*--------------------------------*- C++ -*----------------------------------*\
| =========                 |                                                 |
| \\      /  F ield         | OpenFOAM: The Open Source CFD Toolbox           |
|  \\    /   O peration     | Version:  2406                                  |
|   \\  /    A nd           | Website:  www.openfoam.com                      |
|    \\/     M anipulation  |                                                 |
\*---------------------------------------------------------------------------*/
FoamFile
{
    version     2.0;
    format      ascii;
    arch        "LSB;label=32;scalar=64";
    class       volScalarField;
    location    "8.3";
    object      O2;
}
// * * * * * * * * * * * * * * * * * * * * * * * * * * * * * * * * * * * * * //

dimensions      [0 0 0 0 0 0 0];

internalField   nonuniform List<scalar> 
1000
(
1.24185e-06
1.2395e-06
1.23526e-06
1.22947e-06
1.22236e-06
1.21412e-06
1.20489e-06
1.19479e-06
1.18391e-06
1.17235e-06
1.16017e-06
1.14744e-06
1.13421e-06
1.12053e-06
1.10645e-06
1.09201e-06
1.07724e-06
1.06219e-06
1.04688e-06
1.03135e-06
1.01562e-06
9.99719e-07
9.83674e-07
9.67509e-07
9.5125e-07
9.34917e-07
9.18535e-07
9.02125e-07
8.85708e-07
8.69304e-07
8.52935e-07
8.36619e-07
8.20377e-07
8.04227e-07
7.88187e-07
7.72274e-07
7.56507e-07
7.40901e-07
7.25473e-07
7.10236e-07
6.95206e-07
6.80395e-07
6.65817e-07
6.51483e-07
6.37403e-07
6.23587e-07
6.10045e-07
5.96783e-07
5.8381e-07
5.7113e-07
5.58749e-07
5.46671e-07
5.34899e-07
5.23435e-07
5.12282e-07
5.0144e-07
4.90909e-07
4.80688e-07
4.70775e-07
4.6117e-07
4.51869e-07
4.42869e-07
4.34167e-07
4.25758e-07
4.17639e-07
4.09803e-07
4.02248e-07
3.94966e-07
3.87952e-07
3.81201e-07
3.74707e-07
3.68462e-07
3.62462e-07
3.56699e-07
3.51168e-07
3.45862e-07
3.40774e-07
3.35898e-07
3.31228e-07
3.26756e-07
3.22478e-07
3.18386e-07
3.14475e-07
3.10737e-07
3.07169e-07
3.03762e-07
3.00512e-07
2.97414e-07
2.9446e-07
2.91647e-07
2.88969e-07
2.8642e-07
2.83996e-07
2.81691e-07
2.79502e-07
2.77423e-07
2.7545e-07
2.73579e-07
2.71806e-07
2.70126e-07
2.68536e-07
2.67031e-07
2.65609e-07
2.64266e-07
2.62997e-07
2.61801e-07
2.60674e-07
2.59612e-07
2.58614e-07
2.57676e-07
2.56795e-07
2.55969e-07
2.55195e-07
2.54471e-07
2.53795e-07
2.53164e-07
2.52577e-07
2.52031e-07
2.51524e-07
2.51055e-07
2.50621e-07
2.50222e-07
2.49855e-07
2.49518e-07
2.49212e-07
2.48933e-07
2.4868e-07
2.48453e-07
2.48249e-07
2.48069e-07
2.4791e-07
2.47772e-07
2.47653e-07
2.47553e-07
2.47471e-07
2.47405e-07
2.47356e-07
2.47321e-07
2.473e-07
2.47293e-07
2.47299e-07
2.47317e-07
2.47347e-07
2.47388e-07
2.47439e-07
2.475e-07
2.4757e-07
2.47649e-07
2.47736e-07
2.47831e-07
2.47934e-07
2.48044e-07
2.48161e-07
2.48284e-07
2.48413e-07
2.48548e-07
2.48688e-07
2.48833e-07
2.48983e-07
2.49138e-07
2.49297e-07
2.4946e-07
2.49627e-07
2.49798e-07
2.49972e-07
2.5015e-07
2.5033e-07
2.50514e-07
2.507e-07
2.50889e-07
2.51081e-07
2.51275e-07
2.51471e-07
2.5167e-07
2.5187e-07
2.52072e-07
2.52277e-07
2.52483e-07
2.5269e-07
2.529e-07
2.5311e-07
2.53323e-07
2.53536e-07
2.53751e-07
2.53967e-07
2.54185e-07
2.54403e-07
2.54623e-07
2.54843e-07
2.55065e-07
2.55287e-07
2.55511e-07
2.55735e-07
2.55961e-07
2.56187e-07
2.56413e-07
2.56641e-07
2.5687e-07
2.57099e-07
2.57328e-07
2.57559e-07
2.5779e-07
2.58022e-07
2.58254e-07
2.58487e-07
2.58721e-07
2.58955e-07
2.5919e-07
2.59425e-07
2.59661e-07
2.59897e-07
2.60133e-07
2.6037e-07
2.60608e-07
2.60847e-07
2.61086e-07
2.61325e-07
2.61565e-07
2.61806e-07
2.62047e-07
2.62288e-07
2.6253e-07
2.62772e-07
2.63015e-07
2.63258e-07
2.63501e-07
2.63745e-07
2.6399e-07
2.64234e-07
2.6448e-07
2.64725e-07
2.64971e-07
2.65218e-07
2.65465e-07
2.65712e-07
2.6596e-07
2.66208e-07
2.66456e-07
2.66705e-07
2.66955e-07
2.67205e-07
2.67455e-07
2.67705e-07
2.67956e-07
2.68208e-07
2.68459e-07
2.68712e-07
2.68964e-07
2.69217e-07
2.69471e-07
2.69724e-07
2.69979e-07
2.70233e-07
2.70488e-07
2.70744e-07
2.71e-07
2.71256e-07
2.71512e-07
2.71769e-07
2.72027e-07
2.72285e-07
2.72543e-07
2.72802e-07
2.73061e-07
2.7332e-07
2.7358e-07
2.7384e-07
2.74101e-07
2.74362e-07
2.74624e-07
2.74886e-07
2.75148e-07
2.75411e-07
2.75674e-07
2.75938e-07
2.76202e-07
2.76467e-07
2.76731e-07
2.76997e-07
2.77263e-07
2.77529e-07
2.77795e-07
2.78062e-07
2.7833e-07
2.78598e-07
2.78866e-07
2.79135e-07
2.79404e-07
2.79674e-07
2.79944e-07
2.80215e-07
2.80486e-07
2.80757e-07
2.81029e-07
2.81301e-07
2.81574e-07
2.81848e-07
2.82121e-07
2.82395e-07
2.82668e-07
2.82943e-07
2.83218e-07
2.83495e-07
2.83771e-07
2.84048e-07
2.84326e-07
2.84604e-07
2.84882e-07
2.85161e-07
2.8544e-07
2.8572e-07
2.86001e-07
2.86282e-07
2.86563e-07
2.86845e-07
2.87127e-07
2.8741e-07
2.87694e-07
2.87977e-07
2.88262e-07
2.88547e-07
2.88832e-07
2.89118e-07
2.89405e-07
2.89692e-07
2.89979e-07
2.90267e-07
2.90556e-07
2.90845e-07
2.91134e-07
2.91424e-07
2.91715e-07
2.92006e-07
2.92298e-07
2.92591e-07
2.92883e-07
2.93177e-07
2.93471e-07
2.93765e-07
2.94061e-07
2.94356e-07
2.94653e-07
2.94949e-07
2.95247e-07
2.95545e-07
2.95844e-07
2.96143e-07
2.96443e-07
2.96743e-07
2.97044e-07
2.97346e-07
2.97648e-07
2.97951e-07
2.98254e-07
2.98558e-07
2.98863e-07
2.99168e-07
2.99474e-07
2.99781e-07
3.00088e-07
3.00396e-07
3.00704e-07
3.01013e-07
3.01323e-07
3.01634e-07
3.01945e-07
3.02257e-07
3.02569e-07
3.02882e-07
3.03196e-07
3.0351e-07
3.03826e-07
3.04141e-07
3.04458e-07
3.04775e-07
3.05093e-07
3.05412e-07
3.05731e-07
3.06051e-07
3.06372e-07
3.06693e-07
3.07015e-07
3.07338e-07
3.07662e-07
3.07986e-07
3.08311e-07
3.08636e-07
3.08963e-07
3.0929e-07
3.09618e-07
3.09946e-07
3.10276e-07
3.10606e-07
3.10937e-07
3.11268e-07
3.116e-07
3.11933e-07
3.12267e-07
3.12602e-07
3.12937e-07
3.13273e-07
3.13609e-07
3.13947e-07
3.14285e-07
3.14624e-07
3.14964e-07
3.15304e-07
3.15645e-07
3.15987e-07
3.1633e-07
3.16673e-07
3.17018e-07
3.17363e-07
3.17708e-07
3.18055e-07
3.18402e-07
3.1875e-07
3.19099e-07
3.19448e-07
3.19798e-07
3.20149e-07
3.20501e-07
3.20854e-07
3.21207e-07
3.21561e-07
3.21916e-07
3.22271e-07
3.22628e-07
3.22985e-07
3.23342e-07
3.23701e-07
3.24061e-07
3.24421e-07
3.24782e-07
3.25144e-07
3.25506e-07
3.2587e-07
3.26234e-07
3.26599e-07
3.26964e-07
3.27331e-07
3.27698e-07
3.28067e-07
3.28436e-07
3.28805e-07
3.29176e-07
3.29548e-07
3.2992e-07
3.30293e-07
3.30667e-07
3.31042e-07
3.31417e-07
3.31794e-07
3.32171e-07
3.32549e-07
3.32928e-07
3.33308e-07
3.33688e-07
3.3407e-07
3.34452e-07
3.34835e-07
3.35219e-07
3.35604e-07
3.3599e-07
3.36377e-07
3.36764e-07
3.37153e-07
3.37542e-07
3.37932e-07
3.38324e-07
3.38716e-07
3.39109e-07
3.39502e-07
3.39897e-07
3.40293e-07
3.4069e-07
3.41087e-07
3.41486e-07
3.41885e-07
3.42285e-07
3.42687e-07
3.43089e-07
3.43492e-07
3.43896e-07
3.44301e-07
3.44707e-07
3.45114e-07
3.45522e-07
3.45931e-07
3.46341e-07
3.46752e-07
3.47164e-07
3.47577e-07
3.47991e-07
3.48406e-07
3.48822e-07
3.49239e-07
3.49656e-07
3.50075e-07
3.50495e-07
3.50916e-07
3.51338e-07
3.51761e-07
3.52185e-07
3.5261e-07
3.53037e-07
3.53464e-07
3.53892e-07
3.54321e-07
3.54751e-07
3.55181e-07
3.55611e-07
3.56045e-07
3.56479e-07
3.56915e-07
3.57352e-07
3.5779e-07
3.58229e-07
3.58669e-07
3.5911e-07
3.59552e-07
3.59996e-07
3.6044e-07
3.60886e-07
3.61333e-07
3.61781e-07
3.6223e-07
3.6268e-07
3.63131e-07
3.63583e-07
3.64037e-07
3.64491e-07
3.64947e-07
3.65404e-07
3.65862e-07
3.66322e-07
3.66782e-07
3.67244e-07
3.67706e-07
3.6817e-07
3.68635e-07
3.69102e-07
3.69569e-07
3.70038e-07
3.70507e-07
3.70979e-07
3.71451e-07
3.71924e-07
3.72399e-07
3.72875e-07
3.73352e-07
3.7383e-07
3.74309e-07
3.7479e-07
3.7527e-07
3.7575e-07
3.76234e-07
3.7672e-07
3.77206e-07
3.77694e-07
3.78183e-07
3.78673e-07
3.79165e-07
3.79658e-07
3.80152e-07
3.80647e-07
3.81144e-07
3.81641e-07
3.8214e-07
3.82641e-07
3.83142e-07
3.83645e-07
3.8415e-07
3.84655e-07
3.85162e-07
3.8567e-07
3.86179e-07
3.8669e-07
3.87202e-07
3.87715e-07
3.8823e-07
3.88746e-07
3.89264e-07
3.89782e-07
3.90302e-07
3.90824e-07
3.91347e-07
3.91871e-07
3.92396e-07
3.92923e-07
3.93452e-07
3.93982e-07
3.94513e-07
3.95045e-07
3.9558e-07
3.96115e-07
3.96652e-07
3.9719e-07
3.9773e-07
3.98271e-07
3.98814e-07
3.99359e-07
3.99904e-07
4.00452e-07
4.01e-07
4.01551e-07
4.02102e-07
4.02656e-07
4.03211e-07
4.03767e-07
4.04325e-07
4.04885e-07
4.05446e-07
4.06008e-07
4.06573e-07
4.07139e-07
4.07706e-07
4.08275e-07
4.08846e-07
4.09418e-07
4.09992e-07
4.10568e-07
4.11145e-07
4.11724e-07
4.12305e-07
4.12887e-07
4.13471e-07
4.14056e-07
4.14639e-07
4.15228e-07
4.15818e-07
4.16411e-07
4.17005e-07
4.17601e-07
4.18198e-07
4.18798e-07
4.19399e-07
4.20002e-07
4.20606e-07
4.21213e-07
4.21821e-07
4.22431e-07
4.23043e-07
4.23656e-07
4.24272e-07
4.24889e-07
4.25508e-07
4.26129e-07
4.26752e-07
4.27376e-07
4.28003e-07
4.28631e-07
4.29262e-07
4.29894e-07
4.30528e-07
4.31164e-07
4.31801e-07
4.32441e-07
4.33083e-07
4.33726e-07
4.34372e-07
4.35019e-07
4.35669e-07
4.3632e-07
4.36974e-07
4.37629e-07
4.38286e-07
4.38946e-07
4.39607e-07
4.40271e-07
4.40936e-07
4.41603e-07
4.42273e-07
4.42944e-07
4.43618e-07
4.44293e-07
4.44971e-07
4.45651e-07
4.46333e-07
4.47017e-07
4.47702e-07
4.4839e-07
4.49081e-07
4.49773e-07
4.50467e-07
4.51164e-07
4.51862e-07
4.52563e-07
4.53266e-07
4.53971e-07
4.54678e-07
4.55387e-07
4.56098e-07
4.56812e-07
4.57525e-07
4.58238e-07
4.58958e-07
4.5968e-07
4.60404e-07
4.61131e-07
4.61859e-07
4.6259e-07
4.63323e-07
4.64058e-07
4.64795e-07
4.65534e-07
4.66276e-07
4.6702e-07
4.67766e-07
4.68515e-07
4.69266e-07
4.70019e-07
4.70774e-07
4.71532e-07
4.72292e-07
4.73054e-07
4.73819e-07
4.74586e-07
4.75355e-07
4.76127e-07
4.76901e-07
4.77677e-07
4.78456e-07
4.79238e-07
4.80022e-07
4.80808e-07
4.81597e-07
4.82389e-07
4.83183e-07
4.83979e-07
4.84778e-07
4.8558e-07
4.86385e-07
4.87192e-07
4.88001e-07
4.88814e-07
4.89629e-07
4.90447e-07
4.91268e-07
4.92091e-07
4.92917e-07
4.93746e-07
4.94578e-07
4.95413e-07
4.96251e-07
4.97092e-07
4.97936e-07
4.98782e-07
4.99632e-07
5.00485e-07
5.0134e-07
5.02199e-07
5.03061e-07
5.03926e-07
5.04794e-07
5.05666e-07
5.0654e-07
5.07418e-07
5.08293e-07
5.09176e-07
5.10063e-07
5.10954e-07
5.11848e-07
5.12745e-07
5.13646e-07
5.1455e-07
5.15457e-07
5.16368e-07
5.17283e-07
5.182e-07
5.19122e-07
5.20046e-07
5.20974e-07
5.21906e-07
5.22841e-07
5.2378e-07
5.24722e-07
5.25667e-07
5.26616e-07
5.27569e-07
5.28525e-07
5.29485e-07
5.30449e-07
5.31416e-07
5.32386e-07
5.3336e-07
5.34338e-07
5.3532e-07
5.36305e-07
5.37293e-07
5.38286e-07
5.39282e-07
5.40281e-07
5.41284e-07
5.42291e-07
5.43302e-07
5.44316e-07
5.45334e-07
5.46356e-07
5.47381e-07
5.48411e-07
5.49443e-07
5.5048e-07
5.5152e-07
5.52565e-07
5.53612e-07
5.54664e-07
5.5572e-07
5.56779e-07
5.57842e-07
5.58909e-07
5.5998e-07
5.61055e-07
5.62134e-07
5.63216e-07
5.64303e-07
5.65393e-07
5.66488e-07
5.67586e-07
5.68689e-07
5.69796e-07
5.70906e-07
5.72021e-07
5.7314e-07
5.74264e-07
5.75391e-07
5.76523e-07
5.77659e-07
5.788e-07
5.79945e-07
5.81094e-07
5.82244e-07
5.83397e-07
5.84561e-07
5.8573e-07
5.86901e-07
5.88072e-07
5.89254e-07
5.9044e-07
5.91631e-07
5.92827e-07
5.94027e-07
5.95233e-07
5.96443e-07
5.97651e-07
5.9887e-07
6.00094e-07
6.01322e-07
6.02555e-07
6.03794e-07
6.05038e-07
6.06288e-07
6.07542e-07
6.08802e-07
6.10068e-07
6.11339e-07
6.12615e-07
6.13897e-07
6.15185e-07
6.16478e-07
6.17777e-07
6.19082e-07
6.20393e-07
6.2171e-07
6.23034e-07
6.24363e-07
6.25699e-07
6.27042e-07
6.28391e-07
6.29747e-07
6.31111e-07
6.32481e-07
6.33859e-07
6.35245e-07
6.36639e-07
6.38041e-07
6.39452e-07
6.40872e-07
6.42302e-07
6.43742e-07
6.45192e-07
6.46654e-07
6.48127e-07
6.49613e-07
6.51113e-07
6.52628e-07
6.54157e-07
6.55704e-07
6.57269e-07
6.58854e-07
6.60459e-07
6.62088e-07
6.63742e-07
6.65424e-07
6.67135e-07
6.68879e-07
6.70659e-07
6.72478e-07
6.74341e-07
6.7625e-07
6.78211e-07
6.80228e-07
6.82308e-07
6.84457e-07
6.8668e-07
6.88986e-07
6.91383e-07
6.93879e-07
6.96485e-07
6.9921e-07
7.02067e-07
7.05067e-07
7.08225e-07
7.11556e-07
7.15075e-07
7.18801e-07
7.22753e-07
7.2695e-07
7.31416e-07
7.36176e-07
7.41253e-07
7.46678e-07
7.5248e-07
7.58691e-07
7.65346e-07
7.72483e-07
7.80141e-07
7.88362e-07
7.97192e-07
8.06679e-07
8.16874e-07
8.2783e-07
8.39605e-07
8.52259e-07
8.65854e-07
8.80458e-07
8.96138e-07
9.12966e-07
9.31018e-07
9.50369e-07
9.711e-07
9.9329e-07
1.01702e-06
1.04238e-06
1.06944e-06
1.09829e-06
1.12901e-06
1.16168e-06
1.19636e-06
1.23313e-06
1.27204e-06
1.31315e-06
1.35648e-06
1.40207e-06
1.44992e-06
1.50002e-06
1.55231e-06
1.60676e-06
1.66324e-06
1.72164e-06
1.78177e-06
1.84344e-06
1.90637e-06
1.97027e-06
2.03475e-06
2.09941e-06
2.16376e-06
2.22727e-06
2.28935e-06
2.34935e-06
2.40656e-06
2.46024e-06
2.5096e-06
2.55382e-06
2.59207e-06
2.6235e-06
2.64725e-06
2.66248e-06
2.66829e-06
2.66417e-06
2.64927e-06
2.62294e-06
2.58461e-06
2.53377e-06
2.47002e-06
2.39303e-06
2.30259e-06
2.19859e-06
2.08104e-06
1.95009e-06
1.80605e-06
1.64939e-06
1.48078e-06
1.30116e-06
1.11176e-06
9.14193e-07
7.10573e-07
5.0364e-07
2.96974e-07
9.52568e-08
)
;

boundaryField
{
    fixedWall
    {
        type            zeroGradient;
    }
    outlet
    {
        type            inletOutlet;
        inletValue      uniform 0;
        value           uniform 0;
    }
    defaultFaces
    {
        type            empty;
    }
}


// ************************************************************************* //
