/*--------------------------------*- C++ -*----------------------------------*\
| =========                 |                                                 |
| \\      /  F ield         | OpenFOAM: The Open Source CFD Toolbox           |
|  \\    /   O peration     | Version:  2406                                  |
|   \\  /    A nd           | Website:  www.openfoam.com                      |
|    \\/     M anipulation  |                                                 |
\*---------------------------------------------------------------------------*/
FoamFile
{
    version     2.0;
    format      ascii;
    arch        "LSB;label=32;scalar=64";
    class       surfaceScalarField;
    location    "8.3";
    object      phi;
}
// * * * * * * * * * * * * * * * * * * * * * * * * * * * * * * * * * * * * * //

dimensions      [1 0 -1 0 0 0 0];

oriented        oriented;

internalField   nonuniform List<scalar> 
999
(
-2.44786e-08
-8.00642e-08
-1.54145e-07
-2.395e-07
-3.31751e-07
-4.28128e-07
-5.26834e-07
-6.26658e-07
-7.26771e-07
-8.26614e-07
-9.25773e-07
-1.02398e-06
-1.12104e-06
-1.21681e-06
-1.31119e-06
-1.40414e-06
-1.49561e-06
-1.58557e-06
-1.67402e-06
-1.76095e-06
-1.84637e-06
-1.93029e-06
-2.01272e-06
-2.09368e-06
-2.17318e-06
-2.25125e-06
-2.32791e-06
-2.40317e-06
-2.47705e-06
-2.54959e-06
-2.62079e-06
-2.69067e-06
-2.75927e-06
-2.82658e-06
-2.89265e-06
-2.95748e-06
-3.02109e-06
-3.0835e-06
-3.14472e-06
-3.20479e-06
-3.2637e-06
-3.32147e-06
-3.37814e-06
-3.4337e-06
-3.48817e-06
-3.54158e-06
-3.59392e-06
-3.64522e-06
-3.6955e-06
-3.74476e-06
-3.79302e-06
-3.8403e-06
-3.88659e-06
-3.93193e-06
-3.97632e-06
-4.01978e-06
-4.06231e-06
-4.10393e-06
-4.14466e-06
-4.1845e-06
-4.22346e-06
-4.26157e-06
-4.29882e-06
-4.33523e-06
-4.37083e-06
-4.4056e-06
-4.43958e-06
-4.47276e-06
-4.50516e-06
-4.5368e-06
-4.56768e-06
-4.59781e-06
-4.62721e-06
-4.65588e-06
-4.68385e-06
-4.71112e-06
-4.73769e-06
-4.76359e-06
-4.78882e-06
-4.8134e-06
-4.83733e-06
-4.86063e-06
-4.88331e-06
-4.90537e-06
-4.92684e-06
-4.94771e-06
-4.96801e-06
-4.98773e-06
-5.0069e-06
-5.02552e-06
-5.04361e-06
-5.06117e-06
-5.07822e-06
-5.09476e-06
-5.1108e-06
-5.12637e-06
-5.14146e-06
-5.15608e-06
-5.17025e-06
-5.18398e-06
-5.19727e-06
-5.21014e-06
-5.2226e-06
-5.23465e-06
-5.24631e-06
-5.25758e-06
-5.26848e-06
-5.27901e-06
-5.28918e-06
-5.299e-06
-5.30849e-06
-5.31764e-06
-5.32647e-06
-5.33499e-06
-5.34321e-06
-5.35112e-06
-5.35876e-06
-5.36611e-06
-5.37318e-06
-5.38e-06
-5.38656e-06
-5.39287e-06
-5.39893e-06
-5.40476e-06
-5.41037e-06
-5.41576e-06
-5.42093e-06
-5.42589e-06
-5.43066e-06
-5.43524e-06
-5.43962e-06
-5.44383e-06
-5.44787e-06
-5.45175e-06
-5.45547e-06
-5.459e-06
-5.46238e-06
-5.46561e-06
-5.4687e-06
-5.47168e-06
-5.47454e-06
-5.47725e-06
-5.47985e-06
-5.48232e-06
-5.48469e-06
-5.48694e-06
-5.48909e-06
-5.49116e-06
-5.49313e-06
-5.49501e-06
-5.49679e-06
-5.49849e-06
-5.50011e-06
-5.50165e-06
-5.50312e-06
-5.50451e-06
-5.50584e-06
-5.5071e-06
-5.50829e-06
-5.50943e-06
-5.51051e-06
-5.51154e-06
-5.51251e-06
-5.51344e-06
-5.51431e-06
-5.51514e-06
-5.51593e-06
-5.51668e-06
-5.51739e-06
-5.51805e-06
-5.51869e-06
-5.51929e-06
-5.51986e-06
-5.52039e-06
-5.5209e-06
-5.52138e-06
-5.52183e-06
-5.52226e-06
-5.52267e-06
-5.52305e-06
-5.52341e-06
-5.52375e-06
-5.52407e-06
-5.52437e-06
-5.52466e-06
-5.52493e-06
-5.52518e-06
-5.52542e-06
-5.52565e-06
-5.52586e-06
-5.52606e-06
-5.52625e-06
-5.52642e-06
-5.52659e-06
-5.52674e-06
-5.52689e-06
-5.52703e-06
-5.52716e-06
-5.52728e-06
-5.5274e-06
-5.52751e-06
-5.52761e-06
-5.5277e-06
-5.52779e-06
-5.52787e-06
-5.52795e-06
-5.52802e-06
-5.52809e-06
-5.52815e-06
-5.52821e-06
-5.52827e-06
-5.52832e-06
-5.52837e-06
-5.52842e-06
-5.52846e-06
-5.5285e-06
-5.52854e-06
-5.52857e-06
-5.5286e-06
-5.52863e-06
-5.52866e-06
-5.52869e-06
-5.52871e-06
-5.52873e-06
-5.52875e-06
-5.52877e-06
-5.52879e-06
-5.5288e-06
-5.52882e-06
-5.52883e-06
-5.52884e-06
-5.52885e-06
-5.52886e-06
-5.52887e-06
-5.52888e-06
-5.52889e-06
-5.5289e-06
-5.5289e-06
-5.5289e-06
-5.52891e-06
-5.52891e-06
-5.52891e-06
-5.52892e-06
-5.52892e-06
-5.52892e-06
-5.52892e-06
-5.52892e-06
-5.52892e-06
-5.52892e-06
-5.52892e-06
-5.52892e-06
-5.52891e-06
-5.52891e-06
-5.52891e-06
-5.5289e-06
-5.5289e-06
-5.52889e-06
-5.52889e-06
-5.52889e-06
-5.52888e-06
-5.52888e-06
-5.52887e-06
-5.52886e-06
-5.52886e-06
-5.52885e-06
-5.52884e-06
-5.52884e-06
-5.52883e-06
-5.52882e-06
-5.52882e-06
-5.52881e-06
-5.5288e-06
-5.52879e-06
-5.52878e-06
-5.52878e-06
-5.52877e-06
-5.52876e-06
-5.52875e-06
-5.52874e-06
-5.52873e-06
-5.52872e-06
-5.52872e-06
-5.52871e-06
-5.52869e-06
-5.52869e-06
-5.52868e-06
-5.52867e-06
-5.52866e-06
-5.52865e-06
-5.52864e-06
-5.52863e-06
-5.52862e-06
-5.52861e-06
-5.5286e-06
-5.52859e-06
-5.52858e-06
-5.52857e-06
-5.52856e-06
-5.52855e-06
-5.52854e-06
-5.52853e-06
-5.52852e-06
-5.52852e-06
-5.52851e-06
-5.5285e-06
-5.52849e-06
-5.52848e-06
-5.52847e-06
-5.52846e-06
-5.52845e-06
-5.52844e-06
-5.52843e-06
-5.52842e-06
-5.52841e-06
-5.5284e-06
-5.52839e-06
-5.52838e-06
-5.52837e-06
-5.52837e-06
-5.52836e-06
-5.52835e-06
-5.52834e-06
-5.52833e-06
-5.52832e-06
-5.52832e-06
-5.52831e-06
-5.5283e-06
-5.5283e-06
-5.52829e-06
-5.52828e-06
-5.52828e-06
-5.52827e-06
-5.52826e-06
-5.52826e-06
-5.52825e-06
-5.52824e-06
-5.52824e-06
-5.52823e-06
-5.52823e-06
-5.52822e-06
-5.52822e-06
-5.52821e-06
-5.52821e-06
-5.5282e-06
-5.5282e-06
-5.5282e-06
-5.5282e-06
-5.52819e-06
-5.52819e-06
-5.52819e-06
-5.52819e-06
-5.52818e-06
-5.52818e-06
-5.52818e-06
-5.52818e-06
-5.52818e-06
-5.52817e-06
-5.52817e-06
-5.52817e-06
-5.52817e-06
-5.52817e-06
-5.52817e-06
-5.52817e-06
-5.52817e-06
-5.52817e-06
-5.52817e-06
-5.52817e-06
-5.52817e-06
-5.52817e-06
-5.52817e-06
-5.52818e-06
-5.52818e-06
-5.52818e-06
-5.52818e-06
-5.52818e-06
-5.52819e-06
-5.52819e-06
-5.52819e-06
-5.52819e-06
-5.52819e-06
-5.5282e-06
-5.5282e-06
-5.5282e-06
-5.5282e-06
-5.52821e-06
-5.52821e-06
-5.52821e-06
-5.52821e-06
-5.52822e-06
-5.52822e-06
-5.52822e-06
-5.52823e-06
-5.52823e-06
-5.52823e-06
-5.52823e-06
-5.52824e-06
-5.52824e-06
-5.52824e-06
-5.52824e-06
-5.52825e-06
-5.52825e-06
-5.52825e-06
-5.52825e-06
-5.52825e-06
-5.52826e-06
-5.52826e-06
-5.52826e-06
-5.52826e-06
-5.52826e-06
-5.52827e-06
-5.52827e-06
-5.52827e-06
-5.52827e-06
-5.52827e-06
-5.52827e-06
-5.52827e-06
-5.52827e-06
-5.52827e-06
-5.52827e-06
-5.52827e-06
-5.52827e-06
-5.52827e-06
-5.52827e-06
-5.52827e-06
-5.52827e-06
-5.52827e-06
-5.52827e-06
-5.52827e-06
-5.52827e-06
-5.52827e-06
-5.52827e-06
-5.52827e-06
-5.52827e-06
-5.52827e-06
-5.52827e-06
-5.52826e-06
-5.52826e-06
-5.52826e-06
-5.52826e-06
-5.52826e-06
-5.52825e-06
-5.52825e-06
-5.52825e-06
-5.52825e-06
-5.52825e-06
-5.52824e-06
-5.52824e-06
-5.52824e-06
-5.52824e-06
-5.52824e-06
-5.52823e-06
-5.52823e-06
-5.52823e-06
-5.52823e-06
-5.52823e-06
-5.52822e-06
-5.52822e-06
-5.52822e-06
-5.52822e-06
-5.52822e-06
-5.52821e-06
-5.52821e-06
-5.52821e-06
-5.52821e-06
-5.52821e-06
-5.5282e-06
-5.5282e-06
-5.5282e-06
-5.5282e-06
-5.5282e-06
-5.52819e-06
-5.52819e-06
-5.52819e-06
-5.52819e-06
-5.52819e-06
-5.52819e-06
-5.52818e-06
-5.52818e-06
-5.52818e-06
-5.52818e-06
-5.52818e-06
-5.52818e-06
-5.52818e-06
-5.52818e-06
-5.52818e-06
-5.52818e-06
-5.52818e-06
-5.52818e-06
-5.52817e-06
-5.52817e-06
-5.52817e-06
-5.52817e-06
-5.52817e-06
-5.52817e-06
-5.52817e-06
-5.52817e-06
-5.52817e-06
-5.52818e-06
-5.52817e-06
-5.52817e-06
-5.52818e-06
-5.52818e-06
-5.52818e-06
-5.52818e-06
-5.52818e-06
-5.52818e-06
-5.52818e-06
-5.52818e-06
-5.52818e-06
-5.52818e-06
-5.52818e-06
-5.52818e-06
-5.52818e-06
-5.52818e-06
-5.52818e-06
-5.52818e-06
-5.52818e-06
-5.52818e-06
-5.52818e-06
-5.52818e-06
-5.52818e-06
-5.52818e-06
-5.52818e-06
-5.52818e-06
-5.52818e-06
-5.52818e-06
-5.52818e-06
-5.52818e-06
-5.52818e-06
-5.52818e-06
-5.52818e-06
-5.52818e-06
-5.52818e-06
-5.52818e-06
-5.52818e-06
-5.52818e-06
-5.52817e-06
-5.52817e-06
-5.52817e-06
-5.52817e-06
-5.52817e-06
-5.52817e-06
-5.52817e-06
-5.52816e-06
-5.52816e-06
-5.52816e-06
-5.52816e-06
-5.52816e-06
-5.52815e-06
-5.52815e-06
-5.52815e-06
-5.52814e-06
-5.52814e-06
-5.52814e-06
-5.52814e-06
-5.52813e-06
-5.52813e-06
-5.52813e-06
-5.52812e-06
-5.52812e-06
-5.52812e-06
-5.52811e-06
-5.52811e-06
-5.52811e-06
-5.5281e-06
-5.5281e-06
-5.52809e-06
-5.52809e-06
-5.52809e-06
-5.52808e-06
-5.52808e-06
-5.52807e-06
-5.52807e-06
-5.52806e-06
-5.52806e-06
-5.52806e-06
-5.52805e-06
-5.52805e-06
-5.52804e-06
-5.52804e-06
-5.52804e-06
-5.52803e-06
-5.52803e-06
-5.52803e-06
-5.52802e-06
-5.52802e-06
-5.52802e-06
-5.52801e-06
-5.52801e-06
-5.52801e-06
-5.528e-06
-5.528e-06
-5.528e-06
-5.528e-06
-5.52799e-06
-5.52799e-06
-5.52799e-06
-5.52799e-06
-5.52799e-06
-5.52799e-06
-5.52799e-06
-5.52798e-06
-5.52798e-06
-5.52798e-06
-5.52798e-06
-5.52798e-06
-5.52798e-06
-5.52798e-06
-5.52798e-06
-5.52798e-06
-5.52798e-06
-5.52798e-06
-5.52798e-06
-5.52798e-06
-5.52798e-06
-5.52798e-06
-5.52799e-06
-5.52799e-06
-5.52799e-06
-5.52799e-06
-5.52799e-06
-5.52799e-06
-5.52799e-06
-5.52799e-06
-5.528e-06
-5.528e-06
-5.528e-06
-5.528e-06
-5.52801e-06
-5.52801e-06
-5.52801e-06
-5.52801e-06
-5.52802e-06
-5.52802e-06
-5.52802e-06
-5.52802e-06
-5.52802e-06
-5.52803e-06
-5.52803e-06
-5.52803e-06
-5.52803e-06
-5.52804e-06
-5.52804e-06
-5.52804e-06
-5.52804e-06
-5.52804e-06
-5.52804e-06
-5.52805e-06
-5.52805e-06
-5.52805e-06
-5.52805e-06
-5.52805e-06
-5.52805e-06
-5.52806e-06
-5.52806e-06
-5.52806e-06
-5.52806e-06
-5.52806e-06
-5.52806e-06
-5.52806e-06
-5.52806e-06
-5.52806e-06
-5.52806e-06
-5.52806e-06
-5.52806e-06
-5.52806e-06
-5.52806e-06
-5.52806e-06
-5.52806e-06
-5.52805e-06
-5.52805e-06
-5.52805e-06
-5.52805e-06
-5.52805e-06
-5.52805e-06
-5.52804e-06
-5.52804e-06
-5.52804e-06
-5.52803e-06
-5.52803e-06
-5.52802e-06
-5.52802e-06
-5.52802e-06
-5.52801e-06
-5.52801e-06
-5.528e-06
-5.52799e-06
-5.52799e-06
-5.52798e-06
-5.52798e-06
-5.52797e-06
-5.52796e-06
-5.52795e-06
-5.52795e-06
-5.52794e-06
-5.52793e-06
-5.52792e-06
-5.52791e-06
-5.5279e-06
-5.52789e-06
-5.52788e-06
-5.52787e-06
-5.52786e-06
-5.52785e-06
-5.52784e-06
-5.52783e-06
-5.52782e-06
-5.52781e-06
-5.5278e-06
-5.52779e-06
-5.52778e-06
-5.52777e-06
-5.52776e-06
-5.52775e-06
-5.52774e-06
-5.52773e-06
-5.52772e-06
-5.52772e-06
-5.52771e-06
-5.5277e-06
-5.52769e-06
-5.52768e-06
-5.52767e-06
-5.52767e-06
-5.52766e-06
-5.52765e-06
-5.52765e-06
-5.52764e-06
-5.52764e-06
-5.52763e-06
-5.52763e-06
-5.52762e-06
-5.52762e-06
-5.52762e-06
-5.52762e-06
-5.52762e-06
-5.52762e-06
-5.52762e-06
-5.52762e-06
-5.52762e-06
-5.52762e-06
-5.52762e-06
-5.52763e-06
-5.52763e-06
-5.52763e-06
-5.52764e-06
-5.52764e-06
-5.52765e-06
-5.52765e-06
-5.52766e-06
-5.52767e-06
-5.52768e-06
-5.52768e-06
-5.52769e-06
-5.5277e-06
-5.52771e-06
-5.52772e-06
-5.52773e-06
-5.52774e-06
-5.52775e-06
-5.52776e-06
-5.52777e-06
-5.52778e-06
-5.52779e-06
-5.5278e-06
-5.52781e-06
-5.52783e-06
-5.52784e-06
-5.52785e-06
-5.52786e-06
-5.52787e-06
-5.52788e-06
-5.52789e-06
-5.5279e-06
-5.52791e-06
-5.52792e-06
-5.52792e-06
-5.52793e-06
-5.52794e-06
-5.52795e-06
-5.52795e-06
-5.52796e-06
-5.52797e-06
-5.52797e-06
-5.52798e-06
-5.52798e-06
-5.52799e-06
-5.52799e-06
-5.52799e-06
-5.52799e-06
-5.52799e-06
-5.52799e-06
-5.52799e-06
-5.52799e-06
-5.52799e-06
-5.52799e-06
-5.52798e-06
-5.52798e-06
-5.52798e-06
-5.52797e-06
-5.52797e-06
-5.52796e-06
-5.52796e-06
-5.52795e-06
-5.52794e-06
-5.52793e-06
-5.52793e-06
-5.52792e-06
-5.52791e-06
-5.5279e-06
-5.52789e-06
-5.52788e-06
-5.52786e-06
-5.52785e-06
-5.52784e-06
-5.52783e-06
-5.52782e-06
-5.52781e-06
-5.5278e-06
-5.52779e-06
-5.52778e-06
-5.52777e-06
-5.52776e-06
-5.52775e-06
-5.52774e-06
-5.52772e-06
-5.52771e-06
-5.5277e-06
-5.5277e-06
-5.52769e-06
-5.52768e-06
-5.52767e-06
-5.52766e-06
-5.52766e-06
-5.52765e-06
-5.52765e-06
-5.52764e-06
-5.52764e-06
-5.52764e-06
-5.52763e-06
-5.52763e-06
-5.52763e-06
-5.52764e-06
-5.52764e-06
-5.52765e-06
-5.52766e-06
-5.52766e-06
-5.52768e-06
-5.52769e-06
-5.5277e-06
-5.52772e-06
-5.52775e-06
-5.52777e-06
-5.5278e-06
-5.52784e-06
-5.52788e-06
-5.52792e-06
-5.52797e-06
-5.52803e-06
-5.5281e-06
-5.52818e-06
-5.52826e-06
-5.52836e-06
-5.52847e-06
-5.5286e-06
-5.52874e-06
-5.5289e-06
-5.52908e-06
-5.52928e-06
-5.5295e-06
-5.52976e-06
-5.53004e-06
-5.53036e-06
-5.53072e-06
-5.53112e-06
-5.53157e-06
-5.53207e-06
-5.53263e-06
-5.53326e-06
-5.53396e-06
-5.53474e-06
-5.5356e-06
-5.53657e-06
-5.53764e-06
-5.53883e-06
-5.54016e-06
-5.54163e-06
-5.54325e-06
-5.54505e-06
-5.54705e-06
-5.54925e-06
-5.55168e-06
-5.55436e-06
-5.55732e-06
-5.56058e-06
-5.56416e-06
-5.5681e-06
-5.57243e-06
-5.57718e-06
-5.58239e-06
-5.58809e-06
-5.59432e-06
-5.60114e-06
-5.60859e-06
-5.61671e-06
-5.62556e-06
-5.63521e-06
-5.6457e-06
-5.6571e-06
-5.66948e-06
-5.6829e-06
-5.69745e-06
-5.7132e-06
-5.73024e-06
-5.74865e-06
-5.76852e-06
-5.78995e-06
-5.81303e-06
-5.83787e-06
-5.86459e-06
-5.89328e-06
-5.92408e-06
-5.95709e-06
-5.99245e-06
-6.03029e-06
-6.07073e-06
-6.11393e-06
-6.16001e-06
-6.20914e-06
-6.26146e-06
-6.31712e-06
-6.3763e-06
-6.43913e-06
-6.50581e-06
-6.57649e-06
-6.65135e-06
-6.73057e-06
-6.81433e-06
-6.90281e-06
-6.9962e-06
-7.09469e-06
-7.19847e-06
-7.30773e-06
-7.42268e-06
-7.54352e-06
-7.67044e-06
-7.80366e-06
-7.94339e-06
-8.08983e-06
-8.2432e-06
-8.40371e-06
-8.5716e-06
-8.74707e-06
-8.93035e-06
-9.12168e-06
-9.32129e-06
-9.52942e-06
-9.74631e-06
-9.9722e-06
-1.02074e-05
-1.0452e-05
-1.07065e-05
-1.0971e-05
-1.12459e-05
-1.15315e-05
-1.1828e-05
-1.21358e-05
-1.24552e-05
-1.27866e-05
-1.31303e-05
-1.34868e-05
-1.38564e-05
-1.42395e-05
-1.46365e-05
-1.50478e-05
-1.54737e-05
-1.59143e-05
-1.63683e-05
-1.68302e-05
-1.73323e-05
-1.78497e-05
-1.83844e-05
-1.89381e-05
-1.95119e-05
-2.01072e-05
-2.07249e-05
-2.13657e-05
-2.20304e-05
-2.2719e-05
-2.34313e-05
-2.41658e-05
-2.49202e-05
-2.56899e-05
-2.64675e-05
-2.72413e-05
-2.7993e-05
-2.86943e-05
-2.93019e-05
-2.97493e-05
)
;

boundaryField
{
    fixedWall
    {
        type            calculated;
        value           uniform 0;
    }
    outlet
    {
        type            calculated;
        value           uniform -2.99343e-05;
    }
    defaultFaces
    {
        type            empty;
    }
}


// ************************************************************************* //
