/*--------------------------------*- C++ -*----------------------------------*\
| =========                 |                                                 |
| \\      /  F ield         | OpenFOAM: The Open Source CFD Toolbox           |
|  \\    /   O peration     | Version:  2406                                  |
|   \\  /    A nd           | Website:  www.openfoam.com                      |
|    \\/     M anipulation  |                                                 |
\*---------------------------------------------------------------------------*/
FoamFile
{
    version     2.0;
    format      ascii;
    arch        "LSB;label=32;scalar=64";
    class       volVectorField;
    location    "8.3";
    object      U;
}
// * * * * * * * * * * * * * * * * * * * * * * * * * * * * * * * * * * * * * //

dimensions      [0 1 -1 0 0 0 0];

internalField   nonuniform List<vector> 
1000
(
(-1.34976e-06 0 0)
(-6.2803e-06 0 0)
(-1.58504e-05 0 0)
(-2.88996e-05 0 0)
(-4.45603e-05 0 0)
(-6.23177e-05 0 0)
(-8.18214e-05 0 0)
(-0.000102788 0 0)
(-0.000124985 0 0)
(-0.000148216 0 0)
(-0.00017232 0 0)
(-0.000197161 0 0)
(-0.000222622 0 0)
(-0.000248604 0 0)
(-0.000275018 0 0)
(-0.000301791 0 0)
(-0.000328854 0 0)
(-0.000356149 0 0)
(-0.000383621 0 0)
(-0.000411224 0 0)
(-0.000438915 0 0)
(-0.000466656 0 0)
(-0.000494411 0 0)
(-0.000522148 0 0)
(-0.000549838 0 0)
(-0.000577455 0 0)
(-0.000604973 0 0)
(-0.00063237 0 0)
(-0.000659626 0 0)
(-0.000686721 0 0)
(-0.000713638 0 0)
(-0.00074036 0 0)
(-0.000766872 0 0)
(-0.00079316 0 0)
(-0.000819212 0 0)
(-0.000845015 0 0)
(-0.000870559 0 0)
(-0.000895832 0 0)
(-0.000920826 0 0)
(-0.000945532 0 0)
(-0.000969942 0 0)
(-0.000994049 0 0)
(-0.00101785 0 0)
(-0.00104133 0 0)
(-0.00106449 0 0)
(-0.00108732 0 0)
(-0.00110983 0 0)
(-0.00113199 0 0)
(-0.00115382 0 0)
(-0.00117531 0 0)
(-0.00119646 0 0)
(-0.00121726 0 0)
(-0.00123771 0 0)
(-0.00125781 0 0)
(-0.00127756 0 0)
(-0.00129696 0 0)
(-0.00131601 0 0)
(-0.0013347 0 0)
(-0.00135305 0 0)
(-0.00137104 0 0)
(-0.00138869 0 0)
(-0.00140598 0 0)
(-0.00142292 0 0)
(-0.00143952 0 0)
(-0.00145577 0 0)
(-0.00147168 0 0)
(-0.00148725 0 0)
(-0.00150248 0 0)
(-0.00151737 0 0)
(-0.00153193 0 0)
(-0.00154616 0 0)
(-0.00156005 0 0)
(-0.00157363 0 0)
(-0.00158688 0 0)
(-0.00159982 0 0)
(-0.00161244 0 0)
(-0.00162474 0 0)
(-0.00163675 0 0)
(-0.00164844 0 0)
(-0.00165984 0 0)
(-0.00167095 0 0)
(-0.00168176 0 0)
(-0.00169229 0 0)
(-0.00170253 0 0)
(-0.0017125 0 0)
(-0.00172219 0 0)
(-0.00173161 0 0)
(-0.00174077 0 0)
(-0.00174967 0 0)
(-0.00175831 0 0)
(-0.0017667 0 0)
(-0.00177484 0 0)
(-0.00178275 0 0)
(-0.00179041 0 0)
(-0.00179785 0 0)
(-0.00180505 0 0)
(-0.00181204 0 0)
(-0.0018188 0 0)
(-0.00182535 0 0)
(-0.0018317 0 0)
(-0.00183784 0 0)
(-0.00184378 0 0)
(-0.00184952 0 0)
(-0.00185508 0 0)
(-0.00186045 0 0)
(-0.00186563 0 0)
(-0.00187064 0 0)
(-0.00187548 0 0)
(-0.00188015 0 0)
(-0.00188466 0 0)
(-0.00188901 0 0)
(-0.0018932 0 0)
(-0.00189724 0 0)
(-0.00190114 0 0)
(-0.00190489 0 0)
(-0.0019085 0 0)
(-0.00191198 0 0)
(-0.00191533 0 0)
(-0.00191855 0 0)
(-0.00192165 0 0)
(-0.00192463 0 0)
(-0.00192749 0 0)
(-0.00193025 0 0)
(-0.00193289 0 0)
(-0.00193543 0 0)
(-0.00193786 0 0)
(-0.0019402 0 0)
(-0.00194244 0 0)
(-0.00194459 0 0)
(-0.00194665 0 0)
(-0.00194862 0 0)
(-0.00195052 0 0)
(-0.00195233 0 0)
(-0.00195407 0 0)
(-0.00195573 0 0)
(-0.00195732 0 0)
(-0.00195883 0 0)
(-0.00196027 0 0)
(-0.00196165 0 0)
(-0.00196298 0 0)
(-0.00196425 0 0)
(-0.00196546 0 0)
(-0.00196661 0 0)
(-0.00196771 0 0)
(-0.00196876 0 0)
(-0.00196976 0 0)
(-0.00197072 0 0)
(-0.00197163 0 0)
(-0.0019725 0 0)
(-0.00197333 0 0)
(-0.00197411 0 0)
(-0.00197486 0 0)
(-0.00197557 0 0)
(-0.00197625 0 0)
(-0.0019769 0 0)
(-0.00197751 0 0)
(-0.00197809 0 0)
(-0.00197864 0 0)
(-0.00197916 0 0)
(-0.00197966 0 0)
(-0.00198013 0 0)
(-0.00198058 0 0)
(-0.001981 0 0)
(-0.0019814 0 0)
(-0.00198179 0 0)
(-0.00198215 0 0)
(-0.00198249 0 0)
(-0.00198281 0 0)
(-0.00198312 0 0)
(-0.00198341 0 0)
(-0.00198368 0 0)
(-0.00198394 0 0)
(-0.00198418 0 0)
(-0.00198441 0 0)
(-0.00198463 0 0)
(-0.00198483 0 0)
(-0.00198503 0 0)
(-0.00198521 0 0)
(-0.00198538 0 0)
(-0.00198555 0 0)
(-0.0019857 0 0)
(-0.00198584 0 0)
(-0.00198598 0 0)
(-0.00198611 0 0)
(-0.00198623 0 0)
(-0.00198634 0 0)
(-0.00198645 0 0)
(-0.00198655 0 0)
(-0.00198664 0 0)
(-0.00198673 0 0)
(-0.00198681 0 0)
(-0.00198689 0 0)
(-0.00198696 0 0)
(-0.00198703 0 0)
(-0.0019871 0 0)
(-0.00198716 0 0)
(-0.00198721 0 0)
(-0.00198727 0 0)
(-0.00198732 0 0)
(-0.00198736 0 0)
(-0.00198741 0 0)
(-0.00198745 0 0)
(-0.00198749 0 0)
(-0.00198752 0 0)
(-0.00198755 0 0)
(-0.00198758 0 0)
(-0.00198761 0 0)
(-0.00198764 0 0)
(-0.00198766 0 0)
(-0.00198769 0 0)
(-0.00198771 0 0)
(-0.00198773 0 0)
(-0.00198774 0 0)
(-0.00198776 0 0)
(-0.00198778 0 0)
(-0.00198779 0 0)
(-0.00198781 0 0)
(-0.00198782 0 0)
(-0.00198783 0 0)
(-0.00198784 0 0)
(-0.00198785 0 0)
(-0.00198786 0 0)
(-0.00198786 0 0)
(-0.00198787 0 0)
(-0.00198788 0 0)
(-0.00198788 0 0)
(-0.00198789 0 0)
(-0.00198789 0 0)
(-0.0019879 0 0)
(-0.0019879 0 0)
(-0.0019879 0 0)
(-0.0019879 0 0)
(-0.00198791 0 0)
(-0.00198791 0 0)
(-0.00198791 0 0)
(-0.00198791 0 0)
(-0.00198791 0 0)
(-0.00198791 0 0)
(-0.00198791 0 0)
(-0.00198791 0 0)
(-0.00198791 0 0)
(-0.00198792 0 0)
(-0.00198791 0 0)
(-0.00198791 0 0)
(-0.00198791 0 0)
(-0.00198791 0 0)
(-0.0019879 0 0)
(-0.00198791 0 0)
(-0.0019879 0 0)
(-0.0019879 0 0)
(-0.0019879 0 0)
(-0.00198789 0 0)
(-0.0019879 0 0)
(-0.00198789 0 0)
(-0.00198789 0 0)
(-0.00198788 0 0)
(-0.00198789 0 0)
(-0.00198788 0 0)
(-0.00198788 0 0)
(-0.00198788 0 0)
(-0.00198787 0 0)
(-0.00198787 0 0)
(-0.00198787 0 0)
(-0.00198786 0 0)
(-0.00198786 0 0)
(-0.00198786 0 0)
(-0.00198785 0 0)
(-0.00198785 0 0)
(-0.00198784 0 0)
(-0.00198784 0 0)
(-0.00198784 0 0)
(-0.00198783 0 0)
(-0.00198783 0 0)
(-0.00198782 0 0)
(-0.00198782 0 0)
(-0.00198782 0 0)
(-0.00198782 0 0)
(-0.00198781 0 0)
(-0.00198781 0 0)
(-0.00198781 0 0)
(-0.0019878 0 0)
(-0.0019878 0 0)
(-0.00198779 0 0)
(-0.00198779 0 0)
(-0.00198779 0 0)
(-0.00198778 0 0)
(-0.00198778 0 0)
(-0.00198777 0 0)
(-0.00198777 0 0)
(-0.00198777 0 0)
(-0.00198776 0 0)
(-0.00198776 0 0)
(-0.00198775 0 0)
(-0.00198775 0 0)
(-0.00198775 0 0)
(-0.00198774 0 0)
(-0.00198774 0 0)
(-0.00198773 0 0)
(-0.00198773 0 0)
(-0.00198773 0 0)
(-0.00198772 0 0)
(-0.00198772 0 0)
(-0.00198772 0 0)
(-0.00198771 0 0)
(-0.00198771 0 0)
(-0.00198771 0 0)
(-0.0019877 0 0)
(-0.00198771 0 0)
(-0.0019877 0 0)
(-0.00198769 0 0)
(-0.0019877 0 0)
(-0.00198769 0 0)
(-0.00198769 0 0)
(-0.00198769 0 0)
(-0.00198768 0 0)
(-0.00198769 0 0)
(-0.00198767 0 0)
(-0.00198768 0 0)
(-0.00198767 0 0)
(-0.00198766 0 0)
(-0.00198767 0 0)
(-0.00198766 0 0)
(-0.00198766 0 0)
(-0.00198766 0 0)
(-0.00198766 0 0)
(-0.00198765 0 0)
(-0.00198766 0 0)
(-0.00198765 0 0)
(-0.00198765 0 0)
(-0.00198765 0 0)
(-0.00198764 0 0)
(-0.00198765 0 0)
(-0.00198764 0 0)
(-0.00198764 0 0)
(-0.00198764 0 0)
(-0.00198763 0 0)
(-0.00198764 0 0)
(-0.00198764 0 0)
(-0.00198763 0 0)
(-0.00198764 0 0)
(-0.00198763 0 0)
(-0.00198763 0 0)
(-0.00198763 0 0)
(-0.00198763 0 0)
(-0.00198763 0 0)
(-0.00198762 0 0)
(-0.00198763 0 0)
(-0.00198762 0 0)
(-0.00198763 0 0)
(-0.00198763 0 0)
(-0.00198763 0 0)
(-0.00198763 0 0)
(-0.00198763 0 0)
(-0.00198763 0 0)
(-0.00198763 0 0)
(-0.00198763 0 0)
(-0.00198763 0 0)
(-0.00198763 0 0)
(-0.00198763 0 0)
(-0.00198763 0 0)
(-0.00198763 0 0)
(-0.00198763 0 0)
(-0.00198763 0 0)
(-0.00198763 0 0)
(-0.00198763 0 0)
(-0.00198763 0 0)
(-0.00198763 0 0)
(-0.00198764 0 0)
(-0.00198763 0 0)
(-0.00198764 0 0)
(-0.00198764 0 0)
(-0.00198764 0 0)
(-0.00198764 0 0)
(-0.00198764 0 0)
(-0.00198764 0 0)
(-0.00198764 0 0)
(-0.00198765 0 0)
(-0.00198765 0 0)
(-0.00198765 0 0)
(-0.00198765 0 0)
(-0.00198765 0 0)
(-0.00198765 0 0)
(-0.00198765 0 0)
(-0.00198765 0 0)
(-0.00198766 0 0)
(-0.00198766 0 0)
(-0.00198766 0 0)
(-0.00198766 0 0)
(-0.00198766 0 0)
(-0.00198766 0 0)
(-0.00198766 0 0)
(-0.00198767 0 0)
(-0.00198767 0 0)
(-0.00198767 0 0)
(-0.00198767 0 0)
(-0.00198767 0 0)
(-0.00198767 0 0)
(-0.00198767 0 0)
(-0.00198768 0 0)
(-0.00198767 0 0)
(-0.00198768 0 0)
(-0.00198768 0 0)
(-0.00198768 0 0)
(-0.00198768 0 0)
(-0.00198768 0 0)
(-0.00198768 0 0)
(-0.00198768 0 0)
(-0.00198769 0 0)
(-0.00198768 0 0)
(-0.00198769 0 0)
(-0.00198768 0 0)
(-0.00198769 0 0)
(-0.00198769 0 0)
(-0.00198769 0 0)
(-0.00198769 0 0)
(-0.00198769 0 0)
(-0.00198769 0 0)
(-0.00198769 0 0)
(-0.00198768 0 0)
(-0.00198769 0 0)
(-0.00198769 0 0)
(-0.00198768 0 0)
(-0.00198769 0 0)
(-0.00198769 0 0)
(-0.00198769 0 0)
(-0.00198769 0 0)
(-0.00198769 0 0)
(-0.00198769 0 0)
(-0.00198769 0 0)
(-0.00198769 0 0)
(-0.00198769 0 0)
(-0.00198769 0 0)
(-0.00198769 0 0)
(-0.00198769 0 0)
(-0.00198769 0 0)
(-0.00198769 0 0)
(-0.00198768 0 0)
(-0.00198769 0 0)
(-0.00198768 0 0)
(-0.00198768 0 0)
(-0.00198768 0 0)
(-0.00198768 0 0)
(-0.00198768 0 0)
(-0.00198768 0 0)
(-0.00198768 0 0)
(-0.00198768 0 0)
(-0.00198767 0 0)
(-0.00198768 0 0)
(-0.00198767 0 0)
(-0.00198768 0 0)
(-0.00198768 0 0)
(-0.00198767 0 0)
(-0.00198768 0 0)
(-0.00198767 0 0)
(-0.00198768 0 0)
(-0.00198767 0 0)
(-0.00198767 0 0)
(-0.00198767 0 0)
(-0.00198767 0 0)
(-0.00198767 0 0)
(-0.00198767 0 0)
(-0.00198767 0 0)
(-0.00198767 0 0)
(-0.00198767 0 0)
(-0.00198766 0 0)
(-0.00198767 0 0)
(-0.00198766 0 0)
(-0.00198767 0 0)
(-0.00198767 0 0)
(-0.00198766 0 0)
(-0.00198767 0 0)
(-0.00198766 0 0)
(-0.00198766 0 0)
(-0.00198766 0 0)
(-0.00198766 0 0)
(-0.00198766 0 0)
(-0.00198766 0 0)
(-0.00198766 0 0)
(-0.00198766 0 0)
(-0.00198766 0 0)
(-0.00198766 0 0)
(-0.00198766 0 0)
(-0.00198766 0 0)
(-0.00198766 0 0)
(-0.00198766 0 0)
(-0.00198766 0 0)
(-0.00198766 0 0)
(-0.00198766 0 0)
(-0.00198766 0 0)
(-0.00198766 0 0)
(-0.00198766 0 0)
(-0.00198766 0 0)
(-0.00198766 0 0)
(-0.00198766 0 0)
(-0.00198766 0 0)
(-0.00198766 0 0)
(-0.00198766 0 0)
(-0.00198766 0 0)
(-0.00198766 0 0)
(-0.00198766 0 0)
(-0.00198766 0 0)
(-0.00198766 0 0)
(-0.00198766 0 0)
(-0.00198766 0 0)
(-0.00198766 0 0)
(-0.00198766 0 0)
(-0.00198766 0 0)
(-0.00198766 0 0)
(-0.00198766 0 0)
(-0.00198766 0 0)
(-0.00198766 0 0)
(-0.00198766 0 0)
(-0.00198766 0 0)
(-0.00198766 0 0)
(-0.00198766 0 0)
(-0.00198766 0 0)
(-0.00198766 0 0)
(-0.00198766 0 0)
(-0.00198766 0 0)
(-0.00198766 0 0)
(-0.00198766 0 0)
(-0.00198767 0 0)
(-0.00198766 0 0)
(-0.00198766 0 0)
(-0.00198766 0 0)
(-0.00198766 0 0)
(-0.00198766 0 0)
(-0.00198766 0 0)
(-0.00198766 0 0)
(-0.00198766 0 0)
(-0.00198766 0 0)
(-0.00198766 0 0)
(-0.00198766 0 0)
(-0.00198766 0 0)
(-0.00198766 0 0)
(-0.00198766 0 0)
(-0.00198766 0 0)
(-0.00198766 0 0)
(-0.00198765 0 0)
(-0.00198766 0 0)
(-0.00198765 0 0)
(-0.00198766 0 0)
(-0.00198765 0 0)
(-0.00198766 0 0)
(-0.00198765 0 0)
(-0.00198765 0 0)
(-0.00198765 0 0)
(-0.00198765 0 0)
(-0.00198766 0 0)
(-0.00198765 0 0)
(-0.00198765 0 0)
(-0.00198764 0 0)
(-0.00198765 0 0)
(-0.00198765 0 0)
(-0.00198764 0 0)
(-0.00198765 0 0)
(-0.00198764 0 0)
(-0.00198764 0 0)
(-0.00198763 0 0)
(-0.00198764 0 0)
(-0.00198763 0 0)
(-0.00198764 0 0)
(-0.00198764 0 0)
(-0.00198763 0 0)
(-0.00198764 0 0)
(-0.00198763 0 0)
(-0.00198763 0 0)
(-0.00198763 0 0)
(-0.00198763 0 0)
(-0.00198762 0 0)
(-0.00198763 0 0)
(-0.00198762 0 0)
(-0.00198762 0 0)
(-0.00198762 0 0)
(-0.00198762 0 0)
(-0.00198761 0 0)
(-0.00198762 0 0)
(-0.00198762 0 0)
(-0.00198761 0 0)
(-0.00198762 0 0)
(-0.00198761 0 0)
(-0.00198761 0 0)
(-0.00198761 0 0)
(-0.00198761 0 0)
(-0.0019876 0 0)
(-0.00198761 0 0)
(-0.00198761 0 0)
(-0.0019876 0 0)
(-0.00198761 0 0)
(-0.0019876 0 0)
(-0.0019876 0 0)
(-0.0019876 0 0)
(-0.0019876 0 0)
(-0.0019876 0 0)
(-0.0019876 0 0)
(-0.0019876 0 0)
(-0.0019876 0 0)
(-0.00198759 0 0)
(-0.0019876 0 0)
(-0.0019876 0 0)
(-0.00198759 0 0)
(-0.0019876 0 0)
(-0.00198759 0 0)
(-0.0019876 0 0)
(-0.0019876 0 0)
(-0.0019876 0 0)
(-0.00198759 0 0)
(-0.0019876 0 0)
(-0.0019876 0 0)
(-0.0019876 0 0)
(-0.0019876 0 0)
(-0.0019876 0 0)
(-0.0019876 0 0)
(-0.0019876 0 0)
(-0.0019876 0 0)
(-0.0019876 0 0)
(-0.0019876 0 0)
(-0.0019876 0 0)
(-0.0019876 0 0)
(-0.0019876 0 0)
(-0.0019876 0 0)
(-0.0019876 0 0)
(-0.0019876 0 0)
(-0.0019876 0 0)
(-0.0019876 0 0)
(-0.0019876 0 0)
(-0.00198761 0 0)
(-0.00198761 0 0)
(-0.00198761 0 0)
(-0.00198761 0 0)
(-0.00198761 0 0)
(-0.00198761 0 0)
(-0.00198761 0 0)
(-0.00198761 0 0)
(-0.00198761 0 0)
(-0.00198761 0 0)
(-0.00198761 0 0)
(-0.00198762 0 0)
(-0.00198761 0 0)
(-0.00198762 0 0)
(-0.00198762 0 0)
(-0.00198761 0 0)
(-0.00198762 0 0)
(-0.00198762 0 0)
(-0.00198762 0 0)
(-0.00198762 0 0)
(-0.00198762 0 0)
(-0.00198762 0 0)
(-0.00198762 0 0)
(-0.00198762 0 0)
(-0.00198762 0 0)
(-0.00198762 0 0)
(-0.00198762 0 0)
(-0.00198762 0 0)
(-0.00198762 0 0)
(-0.00198762 0 0)
(-0.00198762 0 0)
(-0.00198762 0 0)
(-0.00198762 0 0)
(-0.00198763 0 0)
(-0.00198762 0 0)
(-0.00198762 0 0)
(-0.00198762 0 0)
(-0.00198762 0 0)
(-0.00198763 0 0)
(-0.00198762 0 0)
(-0.00198762 0 0)
(-0.00198762 0 0)
(-0.00198761 0 0)
(-0.00198762 0 0)
(-0.00198761 0 0)
(-0.00198762 0 0)
(-0.00198761 0 0)
(-0.00198762 0 0)
(-0.00198761 0 0)
(-0.00198761 0 0)
(-0.00198762 0 0)
(-0.0019876 0 0)
(-0.00198761 0 0)
(-0.0019876 0 0)
(-0.0019876 0 0)
(-0.0019876 0 0)
(-0.0019876 0 0)
(-0.0019876 0 0)
(-0.00198759 0 0)
(-0.0019876 0 0)
(-0.00198759 0 0)
(-0.00198759 0 0)
(-0.00198759 0 0)
(-0.00198758 0 0)
(-0.00198759 0 0)
(-0.00198758 0 0)
(-0.00198758 0 0)
(-0.00198757 0 0)
(-0.00198758 0 0)
(-0.00198757 0 0)
(-0.00198757 0 0)
(-0.00198757 0 0)
(-0.00198755 0 0)
(-0.00198756 0 0)
(-0.00198755 0 0)
(-0.00198755 0 0)
(-0.00198755 0 0)
(-0.00198754 0 0)
(-0.00198754 0 0)
(-0.00198754 0 0)
(-0.00198753 0 0)
(-0.00198753 0 0)
(-0.00198753 0 0)
(-0.00198752 0 0)
(-0.00198752 0 0)
(-0.00198752 0 0)
(-0.00198751 0 0)
(-0.00198751 0 0)
(-0.0019875 0 0)
(-0.0019875 0 0)
(-0.0019875 0 0)
(-0.00198749 0 0)
(-0.0019875 0 0)
(-0.00198749 0 0)
(-0.00198749 0 0)
(-0.00198749 0 0)
(-0.00198748 0 0)
(-0.00198749 0 0)
(-0.00198748 0 0)
(-0.00198748 0 0)
(-0.00198748 0 0)
(-0.00198747 0 0)
(-0.00198748 0 0)
(-0.00198748 0 0)
(-0.00198747 0 0)
(-0.00198748 0 0)
(-0.00198747 0 0)
(-0.00198747 0 0)
(-0.00198748 0 0)
(-0.00198747 0 0)
(-0.00198747 0 0)
(-0.00198747 0 0)
(-0.00198748 0 0)
(-0.00198747 0 0)
(-0.00198748 0 0)
(-0.00198748 0 0)
(-0.00198748 0 0)
(-0.00198748 0 0)
(-0.00198748 0 0)
(-0.00198748 0 0)
(-0.00198749 0 0)
(-0.00198749 0 0)
(-0.00198749 0 0)
(-0.00198749 0 0)
(-0.0019875 0 0)
(-0.0019875 0 0)
(-0.0019875 0 0)
(-0.00198751 0 0)
(-0.00198751 0 0)
(-0.00198751 0 0)
(-0.00198752 0 0)
(-0.00198752 0 0)
(-0.00198752 0 0)
(-0.00198753 0 0)
(-0.00198753 0 0)
(-0.00198753 0 0)
(-0.00198754 0 0)
(-0.00198754 0 0)
(-0.00198755 0 0)
(-0.00198755 0 0)
(-0.00198755 0 0)
(-0.00198756 0 0)
(-0.00198756 0 0)
(-0.00198756 0 0)
(-0.00198757 0 0)
(-0.00198757 0 0)
(-0.00198757 0 0)
(-0.00198758 0 0)
(-0.00198758 0 0)
(-0.00198758 0 0)
(-0.00198758 0 0)
(-0.00198759 0 0)
(-0.00198759 0 0)
(-0.00198759 0 0)
(-0.00198759 0 0)
(-0.00198759 0 0)
(-0.0019876 0 0)
(-0.0019876 0 0)
(-0.0019876 0 0)
(-0.0019876 0 0)
(-0.0019876 0 0)
(-0.0019876 0 0)
(-0.0019876 0 0)
(-0.0019876 0 0)
(-0.00198759 0 0)
(-0.0019876 0 0)
(-0.00198759 0 0)
(-0.0019876 0 0)
(-0.00198759 0 0)
(-0.00198759 0 0)
(-0.0019876 0 0)
(-0.00198758 0 0)
(-0.00198759 0 0)
(-0.00198758 0 0)
(-0.00198758 0 0)
(-0.00198758 0 0)
(-0.00198757 0 0)
(-0.00198757 0 0)
(-0.00198757 0 0)
(-0.00198757 0 0)
(-0.00198756 0 0)
(-0.00198756 0 0)
(-0.00198755 0 0)
(-0.00198755 0 0)
(-0.00198754 0 0)
(-0.00198754 0 0)
(-0.00198754 0 0)
(-0.00198753 0 0)
(-0.00198753 0 0)
(-0.00198752 0 0)
(-0.00198752 0 0)
(-0.00198751 0 0)
(-0.00198751 0 0)
(-0.00198751 0 0)
(-0.0019875 0 0)
(-0.0019875 0 0)
(-0.00198749 0 0)
(-0.00198749 0 0)
(-0.00198749 0 0)
(-0.00198748 0 0)
(-0.00198748 0 0)
(-0.00198748 0 0)
(-0.00198747 0 0)
(-0.00198747 0 0)
(-0.00198746 0 0)
(-0.00198746 0 0)
(-0.00198746 0 0)
(-0.00198745 0 0)
(-0.00198745 0 0)
(-0.00198745 0 0)
(-0.00198745 0 0)
(-0.00198745 0 0)
(-0.00198745 0 0)
(-0.00198744 0 0)
(-0.00198745 0 0)
(-0.00198744 0 0)
(-0.00198745 0 0)
(-0.00198745 0 0)
(-0.00198745 0 0)
(-0.00198745 0 0)
(-0.00198745 0 0)
(-0.00198746 0 0)
(-0.00198746 0 0)
(-0.00198747 0 0)
(-0.00198747 0 0)
(-0.00198748 0 0)
(-0.00198749 0 0)
(-0.0019875 0 0)
(-0.00198751 0 0)
(-0.00198752 0 0)
(-0.00198754 0 0)
(-0.00198755 0 0)
(-0.00198757 0 0)
(-0.00198759 0 0)
(-0.00198762 0 0)
(-0.00198764 0 0)
(-0.00198767 0 0)
(-0.00198771 0 0)
(-0.00198775 0 0)
(-0.00198779 0 0)
(-0.00198784 0 0)
(-0.0019879 0 0)
(-0.00198796 0 0)
(-0.00198803 0 0)
(-0.00198811 0 0)
(-0.0019882 0 0)
(-0.0019883 0 0)
(-0.00198842 0 0)
(-0.00198854 0 0)
(-0.00198868 0 0)
(-0.00198884 0 0)
(-0.00198902 0 0)
(-0.00198921 0 0)
(-0.00198943 0 0)
(-0.00198968 0 0)
(-0.00198995 0 0)
(-0.00199025 0 0)
(-0.00199059 0 0)
(-0.00199097 0 0)
(-0.00199138 0 0)
(-0.00199184 0 0)
(-0.00199235 0 0)
(-0.00199292 0 0)
(-0.00199355 0 0)
(-0.00199424 0 0)
(-0.001995 0 0)
(-0.00199584 0 0)
(-0.00199677 0 0)
(-0.00199779 0 0)
(-0.00199892 0 0)
(-0.00200015 0 0)
(-0.00200151 0 0)
(-0.002003 0 0)
(-0.00200463 0 0)
(-0.00200641 0 0)
(-0.00200836 0 0)
(-0.0020105 0 0)
(-0.00201282 0 0)
(-0.00201536 0 0)
(-0.00201813 0 0)
(-0.00202114 0 0)
(-0.00202441 0 0)
(-0.00202796 0 0)
(-0.00203181 0 0)
(-0.00203599 0 0)
(-0.00204051 0 0)
(-0.0020454 0 0)
(-0.00205069 0 0)
(-0.00205639 0 0)
(-0.00206254 0 0)
(-0.00206916 0 0)
(-0.00207628 0 0)
(-0.00208394 0 0)
(-0.00209216 0 0)
(-0.00210097 0 0)
(-0.00211041 0 0)
(-0.0021205 0 0)
(-0.00213129 0 0)
(-0.00214282 0 0)
(-0.0021551 0 0)
(-0.00216818 0 0)
(-0.0021821 0 0)
(-0.0021969 0 0)
(-0.0022126 0 0)
(-0.00222925 0 0)
(-0.00224688 0 0)
(-0.00226553 0 0)
(-0.00228523 0 0)
(-0.00230602 0 0)
(-0.00232794 0 0)
(-0.002351 0 0)
(-0.00237526 0 0)
(-0.00240073 0 0)
(-0.00242744 0 0)
(-0.00245543 0 0)
(-0.0024847 0 0)
(-0.00251528 0 0)
(-0.0025472 0 0)
(-0.00258045 0 0)
(-0.00261506 0 0)
(-0.00265103 0 0)
(-0.00268836 0 0)
(-0.00272704 0 0)
(-0.00276707 0 0)
(-0.00280843 0 0)
(-0.0028511 0 0)
(-0.00289506 0 0)
(-0.00294028 0 0)
(-0.00298671 0 0)
(-0.0030343 0 0)
(-0.00308299 0 0)
(-0.00313273 0 0)
(-0.00318344 0 0)
(-0.00323504 0 0)
(-0.00328743 0 0)
(-0.0033405 0 0)
(-0.00339415 0 0)
(-0.00344825 0 0)
(-0.00350265 0 0)
(-0.00355722 0 0)
(-0.00361177 0 0)
(-0.00366613 0 0)
(-0.00372012 0 0)
(-0.0037735 0 0)
(-0.00382607 0 0)
(-0.00387755 0 0)
(-0.00392769 0 0)
(-0.00397617 0 0)
(-0.00402266 0 0)
(-0.00406678 0 0)
(-0.00410821 0 0)
(-0.00414609 0 0)
(-0.00417977 0 0)
(-0.00421096 0 0)
(-0.0042397 0 0)
(-0.0042631 0 0)
(-0.00428031 0 0)
(-0.00429095 0 0)
(-0.00429452 0 0)
(-0.00429042 0 0)
(-0.00427752 0 0)
(-0.00425518 0 0)
(-0.00422216 0 0)
(-0.00417733 0 0)
(-0.00411946 0 0)
(-0.00404705 0 0)
(-0.0039586 0 0)
(-0.00385236 0 0)
(-0.00372698 0 0)
(-0.0035814 0 0)
(-0.00341385 0 0)
(-0.00321278 0 0)
(-0.00295479 0 0)
(-0.00268646 0 0)
)
;

boundaryField
{
    fixedWall
    {
        type            fixedValue;
        value           uniform (0 0 0);
    }
    outlet
    {
        type            pressureInletOutletVelocity;
        value           uniform (-0.00268646 0 0);
    }
    defaultFaces
    {
        type            empty;
    }
}


// ************************************************************************* //
