/*--------------------------------*- C++ -*----------------------------------*\
| =========                 |                                                 |
| \\      /  F ield         | OpenFOAM: The Open Source CFD Toolbox           |
|  \\    /   O peration     | Version:  2406                                  |
|   \\  /    A nd           | Website:  www.openfoam.com                      |
|    \\/     M anipulation  |                                                 |
\*---------------------------------------------------------------------------*/
FoamFile
{
    version     2.0;
    format      ascii;
    arch        "LSB;label=32;scalar=64";
    class       volScalarField;
    location    "7";
    object      O2;
}
// * * * * * * * * * * * * * * * * * * * * * * * * * * * * * * * * * * * * * //

dimensions      [0 0 0 0 0 0 0];

internalField   nonuniform List<scalar> 
1000
(
1.31957e-06
1.31684e-06
1.31196e-06
1.30532e-06
1.29721e-06
1.28784e-06
1.27737e-06
1.26594e-06
1.25366e-06
1.24063e-06
1.22692e-06
1.2126e-06
1.19775e-06
1.18241e-06
1.16663e-06
1.15047e-06
1.13396e-06
1.11714e-06
1.10005e-06
1.08273e-06
1.0652e-06
1.04751e-06
1.02967e-06
1.01172e-06
9.93684e-07
9.75595e-07
9.57479e-07
9.39362e-07
9.21269e-07
9.03227e-07
8.8526e-07
8.67393e-07
8.4965e-07
8.32053e-07
8.14626e-07
7.97388e-07
7.80362e-07
7.63565e-07
7.47017e-07
7.30734e-07
7.14733e-07
6.99027e-07
6.83632e-07
6.68557e-07
6.53815e-07
6.39414e-07
6.25363e-07
6.11669e-07
5.98336e-07
5.8537e-07
5.72772e-07
5.60546e-07
5.48692e-07
5.37209e-07
5.26097e-07
5.15353e-07
5.04975e-07
4.94958e-07
4.85299e-07
4.75993e-07
4.67033e-07
4.58414e-07
4.50129e-07
4.42172e-07
4.34535e-07
4.2721e-07
4.2019e-07
4.13466e-07
4.07032e-07
4.00877e-07
3.94995e-07
3.89377e-07
3.84015e-07
3.78899e-07
3.74023e-07
3.69378e-07
3.64955e-07
3.60748e-07
3.56747e-07
3.52946e-07
3.49336e-07
3.45911e-07
3.42663e-07
3.39585e-07
3.3667e-07
3.33912e-07
3.31304e-07
3.2884e-07
3.26513e-07
3.24319e-07
3.2225e-07
3.20301e-07
3.18468e-07
3.16745e-07
3.15126e-07
3.13608e-07
3.12186e-07
3.10854e-07
3.09609e-07
3.08448e-07
3.07364e-07
3.06356e-07
3.0542e-07
3.04551e-07
3.03747e-07
3.03004e-07
3.0232e-07
3.01691e-07
3.01114e-07
3.00588e-07
3.00109e-07
2.99675e-07
2.99284e-07
2.98933e-07
2.9862e-07
2.98344e-07
2.98102e-07
2.97893e-07
2.97715e-07
2.97566e-07
2.97444e-07
2.97349e-07
2.97279e-07
2.97232e-07
2.97207e-07
2.97202e-07
2.97218e-07
2.97252e-07
2.97304e-07
2.97372e-07
2.97456e-07
2.97555e-07
2.97667e-07
2.97793e-07
2.97932e-07
2.98082e-07
2.98243e-07
2.98414e-07
2.98596e-07
2.98786e-07
2.98986e-07
2.99193e-07
2.99409e-07
2.99631e-07
2.99861e-07
3.00097e-07
3.00339e-07
3.00587e-07
3.00841e-07
3.01099e-07
3.01363e-07
3.01631e-07
3.01903e-07
3.02179e-07
3.0246e-07
3.02744e-07
3.03031e-07
3.03322e-07
3.03615e-07
3.03912e-07
3.04211e-07
3.04513e-07
3.04818e-07
3.05125e-07
3.05434e-07
3.05745e-07
3.06058e-07
3.06374e-07
3.06691e-07
3.0701e-07
3.0733e-07
3.07653e-07
3.07976e-07
3.08302e-07
3.08629e-07
3.08957e-07
3.09286e-07
3.09617e-07
3.09949e-07
3.10282e-07
3.10617e-07
3.10953e-07
3.11289e-07
3.11627e-07
3.11966e-07
3.12306e-07
3.12647e-07
3.12989e-07
3.13332e-07
3.13676e-07
3.14021e-07
3.14367e-07
3.14712e-07
3.15058e-07
3.15407e-07
3.15757e-07
3.16108e-07
3.16459e-07
3.16811e-07
3.17164e-07
3.17518e-07
3.17873e-07
3.18229e-07
3.18585e-07
3.18942e-07
3.193e-07
3.19659e-07
3.20019e-07
3.20379e-07
3.2074e-07
3.21102e-07
3.21465e-07
3.21829e-07
3.22193e-07
3.22558e-07
3.22924e-07
3.23291e-07
3.23659e-07
3.24027e-07
3.24396e-07
3.24766e-07
3.25137e-07
3.25509e-07
3.25881e-07
3.26254e-07
3.26628e-07
3.27002e-07
3.27378e-07
3.27754e-07
3.28131e-07
3.28509e-07
3.28888e-07
3.29267e-07
3.29647e-07
3.30028e-07
3.3041e-07
3.30792e-07
3.31176e-07
3.3156e-07
3.31945e-07
3.3233e-07
3.32717e-07
3.33104e-07
3.33492e-07
3.33881e-07
3.34271e-07
3.34661e-07
3.35053e-07
3.35445e-07
3.35838e-07
3.36231e-07
3.36626e-07
3.37021e-07
3.37417e-07
3.37814e-07
3.38212e-07
3.38611e-07
3.3901e-07
3.3941e-07
3.39811e-07
3.40213e-07
3.40616e-07
3.41019e-07
3.41424e-07
3.41829e-07
3.42235e-07
3.42642e-07
3.4305e-07
3.43458e-07
3.43868e-07
3.44278e-07
3.44689e-07
3.45101e-07
3.45514e-07
3.45928e-07
3.46343e-07
3.46758e-07
3.47175e-07
3.47592e-07
3.4801e-07
3.48429e-07
3.48849e-07
3.4927e-07
3.49692e-07
3.50115e-07
3.50538e-07
3.50963e-07
3.51388e-07
3.51815e-07
3.52242e-07
3.5267e-07
3.531e-07
3.5353e-07
3.53961e-07
3.54393e-07
3.54826e-07
3.5526e-07
3.55695e-07
3.56129e-07
3.56563e-07
3.57001e-07
3.5744e-07
3.5788e-07
3.58321e-07
3.58763e-07
3.59205e-07
3.59649e-07
3.60094e-07
3.6054e-07
3.60987e-07
3.61435e-07
3.61884e-07
3.62334e-07
3.62785e-07
3.63237e-07
3.6369e-07
3.64144e-07
3.64599e-07
3.65055e-07
3.65513e-07
3.65971e-07
3.6643e-07
3.66891e-07
3.67352e-07
3.67815e-07
3.68279e-07
3.68744e-07
3.6921e-07
3.69677e-07
3.70145e-07
3.70614e-07
3.71085e-07
3.71556e-07
3.72029e-07
3.72503e-07
3.72978e-07
3.73454e-07
3.73931e-07
3.74409e-07
3.74889e-07
3.7537e-07
3.75852e-07
3.76335e-07
3.76819e-07
3.77305e-07
3.77792e-07
3.7828e-07
3.78769e-07
3.79259e-07
3.79751e-07
3.80244e-07
3.80738e-07
3.81234e-07
3.81731e-07
3.82229e-07
3.82728e-07
3.83229e-07
3.83731e-07
3.84234e-07
3.84739e-07
3.85245e-07
3.85752e-07
3.86261e-07
3.86771e-07
3.87282e-07
3.87795e-07
3.88309e-07
3.88824e-07
3.89341e-07
3.8986e-07
3.9038e-07
3.90901e-07
3.91424e-07
3.91948e-07
3.92473e-07
3.93e-07
3.93529e-07
3.94059e-07
3.94591e-07
3.95124e-07
3.95658e-07
3.96194e-07
3.96732e-07
3.97271e-07
3.97812e-07
3.98354e-07
3.98898e-07
3.99443e-07
3.9999e-07
4.00538e-07
4.01088e-07
4.0164e-07
4.02193e-07
4.02748e-07
4.03304e-07
4.03862e-07
4.04422e-07
4.04983e-07
4.05546e-07
4.06111e-07
4.06677e-07
4.07245e-07
4.07814e-07
4.08385e-07
4.08957e-07
4.09527e-07
4.10103e-07
4.10681e-07
4.11261e-07
4.11842e-07
4.12425e-07
4.1301e-07
4.13596e-07
4.14184e-07
4.14773e-07
4.15365e-07
4.15957e-07
4.16552e-07
4.17148e-07
4.17746e-07
4.18346e-07
4.18947e-07
4.1955e-07
4.20155e-07
4.20761e-07
4.2137e-07
4.21979e-07
4.22591e-07
4.23204e-07
4.23819e-07
4.24436e-07
4.25055e-07
4.25675e-07
4.26297e-07
4.26921e-07
4.27546e-07
4.28173e-07
4.28802e-07
4.29433e-07
4.30066e-07
4.307e-07
4.31337e-07
4.31975e-07
4.32611e-07
4.33248e-07
4.33892e-07
4.34537e-07
4.35185e-07
4.35834e-07
4.36485e-07
4.37138e-07
4.37793e-07
4.38449e-07
4.39108e-07
4.39768e-07
4.40431e-07
4.41095e-07
4.41761e-07
4.4243e-07
4.431e-07
4.43772e-07
4.44446e-07
4.45123e-07
4.45801e-07
4.46481e-07
4.47164e-07
4.47848e-07
4.48535e-07
4.49224e-07
4.49914e-07
4.50607e-07
4.51302e-07
4.52e-07
4.52699e-07
4.53401e-07
4.54104e-07
4.5481e-07
4.55518e-07
4.56229e-07
4.56941e-07
4.57656e-07
4.58373e-07
4.59092e-07
4.59814e-07
4.60538e-07
4.61264e-07
4.61992e-07
4.62723e-07
4.63456e-07
4.64192e-07
4.6493e-07
4.6567e-07
4.66413e-07
4.67158e-07
4.67905e-07
4.68655e-07
4.69407e-07
4.70162e-07
4.70919e-07
4.71679e-07
4.72441e-07
4.73205e-07
4.73972e-07
4.74742e-07
4.75514e-07
4.76289e-07
4.77066e-07
4.77845e-07
4.78628e-07
4.79413e-07
4.802e-07
4.80987e-07
4.81775e-07
4.8257e-07
4.83368e-07
4.84169e-07
4.84972e-07
4.85778e-07
4.86587e-07
4.87399e-07
4.88213e-07
4.8903e-07
4.8985e-07
4.90672e-07
4.91497e-07
4.92326e-07
4.93157e-07
4.9399e-07
4.94827e-07
4.95667e-07
4.96509e-07
4.97354e-07
4.98203e-07
4.99054e-07
4.99908e-07
5.00765e-07
5.01625e-07
5.02488e-07
5.03354e-07
5.04223e-07
5.05096e-07
5.05971e-07
5.06849e-07
5.07731e-07
5.08615e-07
5.09503e-07
5.10393e-07
5.11287e-07
5.12184e-07
5.13084e-07
5.13988e-07
5.14894e-07
5.15804e-07
5.16717e-07
5.17633e-07
5.18553e-07
5.19475e-07
5.20401e-07
5.21331e-07
5.22263e-07
5.23199e-07
5.24138e-07
5.2508e-07
5.26026e-07
5.26975e-07
5.27926e-07
5.28875e-07
5.29834e-07
5.30796e-07
5.31761e-07
5.3273e-07
5.33703e-07
5.34679e-07
5.35658e-07
5.36641e-07
5.37628e-07
5.38618e-07
5.39611e-07
5.40608e-07
5.41609e-07
5.42613e-07
5.43621e-07
5.44633e-07
5.45648e-07
5.46667e-07
5.47689e-07
5.48716e-07
5.49746e-07
5.50779e-07
5.51817e-07
5.52859e-07
5.53904e-07
5.54953e-07
5.56006e-07
5.57063e-07
5.58124e-07
5.59189e-07
5.60259e-07
5.61332e-07
5.62409e-07
5.6349e-07
5.64576e-07
5.65666e-07
5.6676e-07
5.67858e-07
5.68961e-07
5.70067e-07
5.71179e-07
5.72294e-07
5.73414e-07
5.74539e-07
5.75668e-07
5.76801e-07
5.77939e-07
5.79082e-07
5.80229e-07
5.81381e-07
5.82537e-07
5.83698e-07
5.84864e-07
5.86035e-07
5.8721e-07
5.8839e-07
5.89575e-07
5.90765e-07
5.9196e-07
5.9316e-07
5.94365e-07
5.95574e-07
5.96784e-07
5.97995e-07
5.9922e-07
6.00451e-07
6.01686e-07
6.02927e-07
6.04172e-07
6.05423e-07
6.06678e-07
6.07939e-07
6.09206e-07
6.10477e-07
6.11754e-07
6.13036e-07
6.14323e-07
6.15616e-07
6.16914e-07
6.18218e-07
6.19527e-07
6.20842e-07
6.22162e-07
6.23488e-07
6.2482e-07
6.26157e-07
6.275e-07
6.28849e-07
6.30204e-07
6.31564e-07
6.32931e-07
6.34303e-07
6.35682e-07
6.37066e-07
6.38457e-07
6.39853e-07
6.41256e-07
6.42665e-07
6.44081e-07
6.45502e-07
6.4693e-07
6.48365e-07
6.49806e-07
6.51254e-07
6.52708e-07
6.54169e-07
6.55636e-07
6.57111e-07
6.58592e-07
6.6008e-07
6.61574e-07
6.63076e-07
6.64585e-07
6.66101e-07
6.67623e-07
6.69153e-07
6.7069e-07
6.72234e-07
6.73786e-07
6.75344e-07
6.7691e-07
6.78484e-07
6.80064e-07
6.81652e-07
6.83248e-07
6.84851e-07
6.86461e-07
6.88079e-07
6.89705e-07
6.91338e-07
6.92979e-07
6.94628e-07
6.96284e-07
6.97948e-07
6.99619e-07
7.01299e-07
7.02986e-07
7.04682e-07
7.0638e-07
7.08078e-07
7.09797e-07
7.11523e-07
7.13257e-07
7.14999e-07
7.16749e-07
7.18508e-07
7.20274e-07
7.22049e-07
7.23832e-07
7.25624e-07
7.27424e-07
7.29232e-07
7.31049e-07
7.32874e-07
7.34709e-07
7.36551e-07
7.38403e-07
7.40263e-07
7.42133e-07
7.44011e-07
7.45899e-07
7.47795e-07
7.49701e-07
7.51616e-07
7.53541e-07
7.55476e-07
7.5742e-07
7.59373e-07
7.61337e-07
7.63311e-07
7.65294e-07
7.67288e-07
7.69292e-07
7.71307e-07
7.73332e-07
7.75368e-07
7.77415e-07
7.79473e-07
7.81541e-07
7.83621e-07
7.85712e-07
7.87815e-07
7.89929e-07
7.92055e-07
7.94193e-07
7.96343e-07
7.98505e-07
8.00679e-07
8.02865e-07
8.05064e-07
8.07276e-07
8.09501e-07
8.11738e-07
8.13989e-07
8.16252e-07
8.1853e-07
8.20805e-07
8.23093e-07
8.25411e-07
8.27742e-07
8.30087e-07
8.32446e-07
8.34819e-07
8.37206e-07
8.39607e-07
8.42022e-07
8.44452e-07
8.46897e-07
8.49357e-07
8.51831e-07
8.54321e-07
8.56825e-07
8.59345e-07
8.6188e-07
8.6443e-07
8.66997e-07
8.69578e-07
8.72176e-07
8.74789e-07
8.77419e-07
8.80064e-07
8.82726e-07
8.85404e-07
8.88098e-07
8.90809e-07
8.93537e-07
8.96281e-07
8.99042e-07
9.0182e-07
9.04615e-07
9.07427e-07
9.10256e-07
9.13103e-07
9.15967e-07
9.18849e-07
9.21749e-07
9.24666e-07
9.27601e-07
9.30555e-07
9.33526e-07
9.36516e-07
9.39525e-07
9.42552e-07
9.45597e-07
9.48662e-07
9.51746e-07
9.54848e-07
9.57971e-07
9.61112e-07
9.64274e-07
9.67455e-07
9.70656e-07
9.73877e-07
9.77119e-07
9.80381e-07
9.83656e-07
9.86937e-07
9.90263e-07
9.93611e-07
9.9698e-07
1.00037e-06
1.00379e-06
1.00722e-06
1.01068e-06
1.01416e-06
1.01767e-06
1.0212e-06
1.02475e-06
1.02833e-06
1.03193e-06
1.03556e-06
1.03921e-06
1.04289e-06
1.04659e-06
1.05032e-06
1.05407e-06
1.05786e-06
1.06167e-06
1.0655e-06
1.06937e-06
1.07326e-06
1.07718e-06
1.08113e-06
1.08511e-06
1.08912e-06
1.09316e-06
1.09723e-06
1.10133e-06
1.10546e-06
1.10962e-06
1.11382e-06
1.11804e-06
1.1223e-06
1.12659e-06
1.13092e-06
1.13528e-06
1.13964e-06
1.14407e-06
1.14853e-06
1.15303e-06
1.15756e-06
1.16213e-06
1.16674e-06
1.17138e-06
1.17607e-06
1.18078e-06
1.18554e-06
1.19034e-06
1.19517e-06
1.20004e-06
1.20495e-06
1.20991e-06
1.2149e-06
1.21994e-06
1.22501e-06
1.23013e-06
1.23529e-06
1.2405e-06
1.24575e-06
1.25104e-06
1.25638e-06
1.26176e-06
1.26719e-06
1.27266e-06
1.27819e-06
1.28376e-06
1.28938e-06
1.29505e-06
1.30077e-06
1.30654e-06
1.31236e-06
1.31823e-06
1.32416e-06
1.3301e-06
1.33614e-06
1.34222e-06
1.34836e-06
1.35455e-06
1.3608e-06
1.3671e-06
1.37346e-06
1.37989e-06
1.38637e-06
1.39292e-06
1.39952e-06
1.40619e-06
1.41293e-06
1.41973e-06
1.4266e-06
1.43354e-06
1.44054e-06
1.44763e-06
1.45478e-06
1.46202e-06
1.46933e-06
1.47673e-06
1.48422e-06
1.4918e-06
1.49947e-06
1.50725e-06
1.51514e-06
1.52314e-06
1.53127e-06
1.53953e-06
1.54794e-06
1.55651e-06
1.56526e-06
1.57421e-06
1.58338e-06
1.5928e-06
1.60249e-06
1.6125e-06
1.62286e-06
1.63362e-06
1.64484e-06
1.65659e-06
1.66893e-06
1.68195e-06
1.69575e-06
1.71045e-06
1.72616e-06
1.74304e-06
1.76124e-06
1.78096e-06
1.80241e-06
1.82581e-06
1.85143e-06
1.87957e-06
1.91054e-06
1.94471e-06
1.98247e-06
2.02424e-06
2.0705e-06
2.12174e-06
2.17849e-06
2.24133e-06
2.31085e-06
2.38765e-06
2.47235e-06
2.56558e-06
2.66791e-06
2.7799e-06
2.902e-06
3.03459e-06
3.17785e-06
3.33179e-06
3.49613e-06
3.67026e-06
3.85316e-06
4.04332e-06
4.23867e-06
4.43649e-06
4.63334e-06
4.82505e-06
5.00671e-06
5.1727e-06
5.31675e-06
5.43216e-06
5.51192e-06
5.54805e-06
5.53597e-06
5.46783e-06
5.3384e-06
5.14298e-06
4.87797e-06
4.54102e-06
4.13114e-06
3.64897e-06
3.09707e-06
2.48047e-06
1.80767e-06
1.09246e-06
3.57347e-07
)
;

boundaryField
{
    fixedWall
    {
        type            zeroGradient;
    }
    outlet
    {
        type            inletOutlet;
        inletValue      uniform 0;
        value           uniform 0;
    }
    defaultFaces
    {
        type            empty;
    }
}


// ************************************************************************* //
