/*--------------------------------*- C++ -*----------------------------------*\
| =========                 |                                                 |
| \\      /  F ield         | OpenFOAM: The Open Source CFD Toolbox           |
|  \\    /   O peration     | Version:  2406                                  |
|   \\  /    A nd           | Website:  www.openfoam.com                      |
|    \\/     M anipulation  |                                                 |
\*---------------------------------------------------------------------------*/
FoamFile
{
    version     2.0;
    format      ascii;
    arch        "LSB;label=32;scalar=64";
    class       surfaceScalarField;
    location    "7";
    object      phi;
}
// * * * * * * * * * * * * * * * * * * * * * * * * * * * * * * * * * * * * * //

dimensions      [1 0 -1 0 0 0 0];

oriented        oriented;

internalField   nonuniform List<scalar> 
999
(
-3.17297e-08
-1.02218e-07
-1.94745e-07
-3.00122e-07
-4.12981e-07
-5.30019e-07
-6.49139e-07
-7.68971e-07
-8.88607e-07
-1.00743e-06
-1.12503e-06
-1.24113e-06
-1.35552e-06
-1.46809e-06
-1.57876e-06
-1.68747e-06
-1.79421e-06
-1.89897e-06
-2.00175e-06
-2.10256e-06
-2.20142e-06
-2.29836e-06
-2.3934e-06
-2.48656e-06
-2.57788e-06
-2.66738e-06
-2.75509e-06
-2.84104e-06
-2.92527e-06
-3.00779e-06
-3.08865e-06
-3.16785e-06
-3.24544e-06
-3.32144e-06
-3.39586e-06
-3.46875e-06
-3.54011e-06
-3.60998e-06
-3.67838e-06
-3.74533e-06
-3.81085e-06
-3.87497e-06
-3.9377e-06
-3.99907e-06
-4.05909e-06
-4.11779e-06
-4.17518e-06
-4.23129e-06
-4.28613e-06
-4.33972e-06
-4.39209e-06
-4.44324e-06
-4.49319e-06
-4.54197e-06
-4.58959e-06
-4.63607e-06
-4.68142e-06
-4.72567e-06
-4.76882e-06
-4.81091e-06
-4.85193e-06
-4.89191e-06
-4.93087e-06
-4.96882e-06
-5.00578e-06
-5.04177e-06
-5.07679e-06
-5.11087e-06
-5.14403e-06
-5.17627e-06
-5.20763e-06
-5.2381e-06
-5.2677e-06
-5.29647e-06
-5.3244e-06
-5.35151e-06
-5.37782e-06
-5.40335e-06
-5.42811e-06
-5.45211e-06
-5.47538e-06
-5.49793e-06
-5.51976e-06
-5.54091e-06
-5.56137e-06
-5.58118e-06
-5.60033e-06
-5.61885e-06
-5.63676e-06
-5.65406e-06
-5.67077e-06
-5.6869e-06
-5.70248e-06
-5.71751e-06
-5.732e-06
-5.74598e-06
-5.75945e-06
-5.77242e-06
-5.78492e-06
-5.79696e-06
-5.80854e-06
-5.81968e-06
-5.83039e-06
-5.84069e-06
-5.85059e-06
-5.86009e-06
-5.86922e-06
-5.87798e-06
-5.88638e-06
-5.89444e-06
-5.90216e-06
-5.90956e-06
-5.91666e-06
-5.92344e-06
-5.92994e-06
-5.93616e-06
-5.9421e-06
-5.94778e-06
-5.95321e-06
-5.95839e-06
-5.96333e-06
-5.96802e-06
-5.97256e-06
-5.97686e-06
-5.98096e-06
-5.98487e-06
-5.98858e-06
-5.99213e-06
-5.99549e-06
-5.9987e-06
-6.00175e-06
-6.00465e-06
-6.0074e-06
-6.01002e-06
-6.0125e-06
-6.01486e-06
-6.01709e-06
-6.01921e-06
-6.02122e-06
-6.02313e-06
-6.02493e-06
-6.02663e-06
-6.02825e-06
-6.02977e-06
-6.03121e-06
-6.03258e-06
-6.03387e-06
-6.03508e-06
-6.03623e-06
-6.03732e-06
-6.03834e-06
-6.0393e-06
-6.04021e-06
-6.04107e-06
-6.04187e-06
-6.04263e-06
-6.04334e-06
-6.04402e-06
-6.04465e-06
-6.04524e-06
-6.0458e-06
-6.04632e-06
-6.04681e-06
-6.04728e-06
-6.04771e-06
-6.04812e-06
-6.0485e-06
-6.04885e-06
-6.04919e-06
-6.0495e-06
-6.04979e-06
-6.05007e-06
-6.05033e-06
-6.05057e-06
-6.05079e-06
-6.051e-06
-6.0512e-06
-6.05138e-06
-6.05156e-06
-6.05172e-06
-6.05187e-06
-6.05201e-06
-6.05214e-06
-6.05227e-06
-6.05238e-06
-6.05249e-06
-6.05259e-06
-6.05268e-06
-6.05277e-06
-6.05285e-06
-6.05293e-06
-6.053e-06
-6.05306e-06
-6.05313e-06
-6.05319e-06
-6.05324e-06
-6.05329e-06
-6.05334e-06
-6.05338e-06
-6.05342e-06
-6.05346e-06
-6.0535e-06
-6.05353e-06
-6.05356e-06
-6.05359e-06
-6.05362e-06
-6.05365e-06
-6.05367e-06
-6.05369e-06
-6.05372e-06
-6.05374e-06
-6.05375e-06
-6.05377e-06
-6.05379e-06
-6.0538e-06
-6.05382e-06
-6.05383e-06
-6.05384e-06
-6.05385e-06
-6.05386e-06
-6.05387e-06
-6.05388e-06
-6.05389e-06
-6.0539e-06
-6.0539e-06
-6.05391e-06
-6.05392e-06
-6.05392e-06
-6.05393e-06
-6.05393e-06
-6.05393e-06
-6.05394e-06
-6.05394e-06
-6.05394e-06
-6.05395e-06
-6.05395e-06
-6.05395e-06
-6.05395e-06
-6.05395e-06
-6.05395e-06
-6.05395e-06
-6.05394e-06
-6.05394e-06
-6.05394e-06
-6.05394e-06
-6.05394e-06
-6.05393e-06
-6.05393e-06
-6.05393e-06
-6.05392e-06
-6.05392e-06
-6.05391e-06
-6.05391e-06
-6.0539e-06
-6.0539e-06
-6.05389e-06
-6.05389e-06
-6.05388e-06
-6.05387e-06
-6.05387e-06
-6.05386e-06
-6.05385e-06
-6.05384e-06
-6.05384e-06
-6.05383e-06
-6.05382e-06
-6.05381e-06
-6.0538e-06
-6.05379e-06
-6.05378e-06
-6.05377e-06
-6.05376e-06
-6.05375e-06
-6.05375e-06
-6.05374e-06
-6.05373e-06
-6.05372e-06
-6.05371e-06
-6.0537e-06
-6.05369e-06
-6.05367e-06
-6.05366e-06
-6.05365e-06
-6.05364e-06
-6.05363e-06
-6.05362e-06
-6.05361e-06
-6.0536e-06
-6.05358e-06
-6.05357e-06
-6.05356e-06
-6.05355e-06
-6.05354e-06
-6.05353e-06
-6.05351e-06
-6.0535e-06
-6.05349e-06
-6.05348e-06
-6.05347e-06
-6.05346e-06
-6.05344e-06
-6.05343e-06
-6.05342e-06
-6.05341e-06
-6.0534e-06
-6.05339e-06
-6.05337e-06
-6.05336e-06
-6.05335e-06
-6.05334e-06
-6.05333e-06
-6.05332e-06
-6.0533e-06
-6.05329e-06
-6.05328e-06
-6.05327e-06
-6.05326e-06
-6.05325e-06
-6.05324e-06
-6.05323e-06
-6.05322e-06
-6.05321e-06
-6.0532e-06
-6.05318e-06
-6.05318e-06
-6.05317e-06
-6.05316e-06
-6.05315e-06
-6.05314e-06
-6.05313e-06
-6.05312e-06
-6.05311e-06
-6.0531e-06
-6.05309e-06
-6.05308e-06
-6.05307e-06
-6.05307e-06
-6.05306e-06
-6.05305e-06
-6.05304e-06
-6.05304e-06
-6.05303e-06
-6.05302e-06
-6.05301e-06
-6.05301e-06
-6.053e-06
-6.053e-06
-6.05299e-06
-6.05299e-06
-6.05298e-06
-6.05298e-06
-6.05298e-06
-6.05297e-06
-6.05297e-06
-6.05297e-06
-6.05296e-06
-6.05296e-06
-6.05296e-06
-6.05296e-06
-6.05296e-06
-6.05296e-06
-6.05296e-06
-6.05296e-06
-6.05296e-06
-6.05296e-06
-6.05296e-06
-6.05296e-06
-6.05296e-06
-6.05296e-06
-6.05296e-06
-6.05297e-06
-6.05297e-06
-6.05297e-06
-6.05297e-06
-6.05298e-06
-6.05298e-06
-6.05298e-06
-6.05299e-06
-6.05299e-06
-6.05299e-06
-6.053e-06
-6.053e-06
-6.05301e-06
-6.05301e-06
-6.05302e-06
-6.05302e-06
-6.05303e-06
-6.05303e-06
-6.05304e-06
-6.05304e-06
-6.05305e-06
-6.05305e-06
-6.05306e-06
-6.05306e-06
-6.05307e-06
-6.05307e-06
-6.05308e-06
-6.05308e-06
-6.05309e-06
-6.05309e-06
-6.0531e-06
-6.0531e-06
-6.05311e-06
-6.05311e-06
-6.05311e-06
-6.05312e-06
-6.05312e-06
-6.05312e-06
-6.05313e-06
-6.05313e-06
-6.05313e-06
-6.05313e-06
-6.05313e-06
-6.05314e-06
-6.05314e-06
-6.05314e-06
-6.05314e-06
-6.05314e-06
-6.05314e-06
-6.05314e-06
-6.05314e-06
-6.05314e-06
-6.05314e-06
-6.05314e-06
-6.05313e-06
-6.05313e-06
-6.05313e-06
-6.05313e-06
-6.05313e-06
-6.05313e-06
-6.05312e-06
-6.05312e-06
-6.05311e-06
-6.05311e-06
-6.05311e-06
-6.0531e-06
-6.0531e-06
-6.05309e-06
-6.05309e-06
-6.05308e-06
-6.05308e-06
-6.05307e-06
-6.05307e-06
-6.05307e-06
-6.05306e-06
-6.05306e-06
-6.05305e-06
-6.05305e-06
-6.05304e-06
-6.05304e-06
-6.05303e-06
-6.05302e-06
-6.05302e-06
-6.05301e-06
-6.05301e-06
-6.05301e-06
-6.053e-06
-6.053e-06
-6.05299e-06
-6.05299e-06
-6.05298e-06
-6.05298e-06
-6.05298e-06
-6.05297e-06
-6.05297e-06
-6.05296e-06
-6.05296e-06
-6.05295e-06
-6.05295e-06
-6.05295e-06
-6.05294e-06
-6.05294e-06
-6.05294e-06
-6.05294e-06
-6.05293e-06
-6.05293e-06
-6.05293e-06
-6.05293e-06
-6.05292e-06
-6.05292e-06
-6.05292e-06
-6.05292e-06
-6.05292e-06
-6.05292e-06
-6.05292e-06
-6.05291e-06
-6.05291e-06
-6.05291e-06
-6.05291e-06
-6.05291e-06
-6.05291e-06
-6.05291e-06
-6.05291e-06
-6.05291e-06
-6.05291e-06
-6.05291e-06
-6.05291e-06
-6.05291e-06
-6.05291e-06
-6.05291e-06
-6.05291e-06
-6.05291e-06
-6.05291e-06
-6.05291e-06
-6.05291e-06
-6.05291e-06
-6.05291e-06
-6.05291e-06
-6.05291e-06
-6.05291e-06
-6.05291e-06
-6.05291e-06
-6.05291e-06
-6.05291e-06
-6.05291e-06
-6.05291e-06
-6.05292e-06
-6.05292e-06
-6.05292e-06
-6.05292e-06
-6.05292e-06
-6.05292e-06
-6.05292e-06
-6.05292e-06
-6.05292e-06
-6.05292e-06
-6.05292e-06
-6.05292e-06
-6.05292e-06
-6.05293e-06
-6.05293e-06
-6.05293e-06
-6.05293e-06
-6.05293e-06
-6.05293e-06
-6.05293e-06
-6.05293e-06
-6.05293e-06
-6.05293e-06
-6.05293e-06
-6.05292e-06
-6.05292e-06
-6.05292e-06
-6.05292e-06
-6.05292e-06
-6.05291e-06
-6.05291e-06
-6.05291e-06
-6.05291e-06
-6.0529e-06
-6.0529e-06
-6.0529e-06
-6.05289e-06
-6.05289e-06
-6.05288e-06
-6.05288e-06
-6.05287e-06
-6.05287e-06
-6.05286e-06
-6.05286e-06
-6.05285e-06
-6.05285e-06
-6.05284e-06
-6.05283e-06
-6.05283e-06
-6.05282e-06
-6.05281e-06
-6.0528e-06
-6.05279e-06
-6.05278e-06
-6.05278e-06
-6.05277e-06
-6.05276e-06
-6.05275e-06
-6.05274e-06
-6.05273e-06
-6.05272e-06
-6.05271e-06
-6.05271e-06
-6.0527e-06
-6.05269e-06
-6.05268e-06
-6.05267e-06
-6.05266e-06
-6.05265e-06
-6.05265e-06
-6.05264e-06
-6.05263e-06
-6.05263e-06
-6.05262e-06
-6.05261e-06
-6.0526e-06
-6.0526e-06
-6.05259e-06
-6.05259e-06
-6.05258e-06
-6.05258e-06
-6.05257e-06
-6.05257e-06
-6.05256e-06
-6.05256e-06
-6.05256e-06
-6.05255e-06
-6.05255e-06
-6.05255e-06
-6.05255e-06
-6.05255e-06
-6.05255e-06
-6.05255e-06
-6.05255e-06
-6.05255e-06
-6.05255e-06
-6.05255e-06
-6.05255e-06
-6.05255e-06
-6.05255e-06
-6.05256e-06
-6.05256e-06
-6.05256e-06
-6.05256e-06
-6.05256e-06
-6.05257e-06
-6.05257e-06
-6.05257e-06
-6.05257e-06
-6.05258e-06
-6.05258e-06
-6.05258e-06
-6.05258e-06
-6.05259e-06
-6.05259e-06
-6.05259e-06
-6.05259e-06
-6.05259e-06
-6.0526e-06
-6.0526e-06
-6.0526e-06
-6.0526e-06
-6.0526e-06
-6.05261e-06
-6.05261e-06
-6.05261e-06
-6.05261e-06
-6.05261e-06
-6.05261e-06
-6.05261e-06
-6.05262e-06
-6.05262e-06
-6.05262e-06
-6.05262e-06
-6.05262e-06
-6.05262e-06
-6.05262e-06
-6.05262e-06
-6.05262e-06
-6.05262e-06
-6.05262e-06
-6.05263e-06
-6.05263e-06
-6.05263e-06
-6.05263e-06
-6.05263e-06
-6.05263e-06
-6.05263e-06
-6.05263e-06
-6.05263e-06
-6.05263e-06
-6.05264e-06
-6.05264e-06
-6.05264e-06
-6.05264e-06
-6.05264e-06
-6.05264e-06
-6.05264e-06
-6.05264e-06
-6.05264e-06
-6.05264e-06
-6.05264e-06
-6.05264e-06
-6.05264e-06
-6.05264e-06
-6.05264e-06
-6.05264e-06
-6.05263e-06
-6.05263e-06
-6.05263e-06
-6.05262e-06
-6.05262e-06
-6.05261e-06
-6.05261e-06
-6.0526e-06
-6.05259e-06
-6.05258e-06
-6.05257e-06
-6.05256e-06
-6.05255e-06
-6.05254e-06
-6.05253e-06
-6.05252e-06
-6.0525e-06
-6.05249e-06
-6.05247e-06
-6.05245e-06
-6.05244e-06
-6.05242e-06
-6.0524e-06
-6.05238e-06
-6.05236e-06
-6.05234e-06
-6.05231e-06
-6.05229e-06
-6.05227e-06
-6.05225e-06
-6.05222e-06
-6.0522e-06
-6.05217e-06
-6.05215e-06
-6.05212e-06
-6.0521e-06
-6.05207e-06
-6.05205e-06
-6.05202e-06
-6.052e-06
-6.05198e-06
-6.05195e-06
-6.05193e-06
-6.05191e-06
-6.05188e-06
-6.05186e-06
-6.05184e-06
-6.05182e-06
-6.05181e-06
-6.05179e-06
-6.05178e-06
-6.05176e-06
-6.05175e-06
-6.05174e-06
-6.05172e-06
-6.05171e-06
-6.05171e-06
-6.0517e-06
-6.05169e-06
-6.05169e-06
-6.05169e-06
-6.05169e-06
-6.05169e-06
-6.05169e-06
-6.0517e-06
-6.05171e-06
-6.05171e-06
-6.05172e-06
-6.05173e-06
-6.05174e-06
-6.05175e-06
-6.05177e-06
-6.05178e-06
-6.0518e-06
-6.05182e-06
-6.05184e-06
-6.05186e-06
-6.05188e-06
-6.0519e-06
-6.05192e-06
-6.05195e-06
-6.05197e-06
-6.05199e-06
-6.05202e-06
-6.05204e-06
-6.05207e-06
-6.05209e-06
-6.05212e-06
-6.05214e-06
-6.05216e-06
-6.05219e-06
-6.05221e-06
-6.05224e-06
-6.05226e-06
-6.05228e-06
-6.0523e-06
-6.05232e-06
-6.05234e-06
-6.05236e-06
-6.05237e-06
-6.05239e-06
-6.0524e-06
-6.05241e-06
-6.05242e-06
-6.05243e-06
-6.05244e-06
-6.05245e-06
-6.05245e-06
-6.05245e-06
-6.05246e-06
-6.05245e-06
-6.05245e-06
-6.05245e-06
-6.05244e-06
-6.05243e-06
-6.05242e-06
-6.05241e-06
-6.0524e-06
-6.05238e-06
-6.05237e-06
-6.05235e-06
-6.05233e-06
-6.0523e-06
-6.05228e-06
-6.05226e-06
-6.05223e-06
-6.0522e-06
-6.05217e-06
-6.05215e-06
-6.05211e-06
-6.05208e-06
-6.05205e-06
-6.05202e-06
-6.05198e-06
-6.05195e-06
-6.05191e-06
-6.05188e-06
-6.05184e-06
-6.05181e-06
-6.05177e-06
-6.05174e-06
-6.0517e-06
-6.05167e-06
-6.05164e-06
-6.0516e-06
-6.05157e-06
-6.05154e-06
-6.05151e-06
-6.05148e-06
-6.05145e-06
-6.05143e-06
-6.0514e-06
-6.05138e-06
-6.05136e-06
-6.05134e-06
-6.05132e-06
-6.0513e-06
-6.05129e-06
-6.05127e-06
-6.05126e-06
-6.05125e-06
-6.05124e-06
-6.05123e-06
-6.05123e-06
-6.05122e-06
-6.05122e-06
-6.05122e-06
-6.05122e-06
-6.05122e-06
-6.05122e-06
-6.05122e-06
-6.05123e-06
-6.05123e-06
-6.05124e-06
-6.05124e-06
-6.05125e-06
-6.05125e-06
-6.05126e-06
-6.05127e-06
-6.05127e-06
-6.05128e-06
-6.05129e-06
-6.05129e-06
-6.0513e-06
-6.05131e-06
-6.05131e-06
-6.05131e-06
-6.05132e-06
-6.05132e-06
-6.05132e-06
-6.05132e-06
-6.05133e-06
-6.05133e-06
-6.05132e-06
-6.05132e-06
-6.05132e-06
-6.05131e-06
-6.05131e-06
-6.0513e-06
-6.0513e-06
-6.05129e-06
-6.05128e-06
-6.05127e-06
-6.05126e-06
-6.05125e-06
-6.05124e-06
-6.05122e-06
-6.05121e-06
-6.0512e-06
-6.05118e-06
-6.05117e-06
-6.05116e-06
-6.05114e-06
-6.05113e-06
-6.05112e-06
-6.05111e-06
-6.05109e-06
-6.05108e-06
-6.05108e-06
-6.05108e-06
-6.05108e-06
-6.05109e-06
-6.0511e-06
-6.05113e-06
-6.05116e-06
-6.05121e-06
-6.05128e-06
-6.05136e-06
-6.05147e-06
-6.0516e-06
-6.05178e-06
-6.05199e-06
-6.05225e-06
-6.05257e-06
-6.05296e-06
-6.05344e-06
-6.05401e-06
-6.0547e-06
-6.05553e-06
-6.05653e-06
-6.05771e-06
-6.05913e-06
-6.06081e-06
-6.0628e-06
-6.06515e-06
-6.06793e-06
-6.0712e-06
-6.07505e-06
-6.07956e-06
-6.08484e-06
-6.091e-06
-6.09818e-06
-6.10654e-06
-6.11623e-06
-6.12746e-06
-6.14044e-06
-6.15541e-06
-6.17263e-06
-6.19241e-06
-6.21506e-06
-6.24097e-06
-6.27051e-06
-6.30414e-06
-6.34232e-06
-6.38558e-06
-6.43447e-06
-6.48961e-06
-6.55165e-06
-6.62129e-06
-6.69927e-06
-6.7864e-06
-6.88353e-06
-6.99154e-06
-7.11139e-06
-7.24405e-06
-7.39058e-06
-7.55205e-06
-7.72958e-06
-7.92435e-06
-8.13755e-06
-8.37043e-06
-8.62427e-06
-8.90038e-06
-9.2001e-06
-9.52482e-06
-9.87594e-06
-1.02549e-05
-1.06632e-05
-1.11022e-05
-1.15737e-05
-1.2079e-05
-1.26199e-05
-1.31981e-05
-1.38152e-05
-1.44732e-05
-1.5174e-05
-1.59196e-05
-1.67125e-05
-1.75551e-05
-1.84502e-05
-1.94012e-05
-2.04119e-05
-2.14868e-05
-2.26009e-05
-2.37851e-05
-2.50461e-05
-2.63887e-05
-2.78181e-05
-2.93395e-05
-3.09572e-05
-3.2673e-05
-3.44827e-05
-3.63699e-05
-3.82913e-05
-4.01486e-05
-4.17225e-05
)
;

boundaryField
{
    fixedWall
    {
        type            calculated;
        value           uniform 0;
    }
    outlet
    {
        type            calculated;
        value           uniform -4.25106e-05;
    }
    defaultFaces
    {
        type            empty;
    }
}


// ************************************************************************* //
