/*--------------------------------*- C++ -*----------------------------------*\
| =========                 |                                                 |
| \\      /  F ield         | OpenFOAM: The Open Source CFD Toolbox           |
|  \\    /   O peration     | Version:  2406                                  |
|   \\  /    A nd           | Website:  www.openfoam.com                      |
|    \\/     M anipulation  |                                                 |
\*---------------------------------------------------------------------------*/
FoamFile
{
    version     2.0;
    format      ascii;
    arch        "LSB;label=32;scalar=64";
    class       volScalarField;
    location    "7";
    object      Qdot;
}
// * * * * * * * * * * * * * * * * * * * * * * * * * * * * * * * * * * * * * //

dimensions      [1 -1 -3 0 0 0 0];

internalField   nonuniform List<scalar> 
1000
(
3.14653e-09
-1.0229e-16
7.76454e-09
1.14133e-08
6.0715e-08
2.99927e-07
1.17401e-06
3.74796e-06
1.03117e-05
2.50614e-05
5.5015e-05
0.000110812
0.000207525
0.000365137
0.000608687
0.000968035
0.00147722
0.0021734
0.00309553
0.00428279
0.00577295
0.00760067
0.00979596
0.0123829
0.0153783
0.0187911
0.022622
0.026863
0.0314977
0.036502
0.0418445
0.0474875
0.0533884
0.0595004
0.065774
0.0721582
0.0786017
0.0850538
0.0914658
0.0977914
0.103988
0.110016
0.115841
0.121433
0.126768
0.131823
0.136584
0.14104
0.145182
0.149009
0.152521
0.155721
0.158616
0.161216
0.163531
0.165574
0.167358
0.1689
0.170215
0.171318
0.172227
0.172956
0.173523
0.173942
0.174229
0.174398
0.174463
0.174437
0.174332
0.17416
0.17393
0.173654
0.173339
0.172994
0.172626
0.172243
0.17185
0.171453
0.171056
0.170663
0.170279
0.169906
0.169548
0.169206
0.168882
0.168579
0.168297
0.168037
0.167801
0.167588
0.167399
0.167234
0.167093
0.166976
0.166882
0.166812
0.166765
0.16674
0.166737
0.166755
0.166794
0.166852
0.166929
0.167025
0.167138
0.167267
0.167413
0.167574
0.16775
0.167939
0.168142
0.168356
0.168583
0.168821
0.169069
0.169327
0.169595
0.169871
0.170156
0.170448
0.170748
0.171054
0.171366
0.171684
0.172007
0.172337
0.172671
0.17301
0.173353
0.173701
0.174052
0.174406
0.174764
0.175124
0.175488
0.175854
0.176223
0.176594
0.176967
0.177342
0.177719
0.178098
0.178478
0.178861
0.179244
0.17963
0.180016
0.180405
0.180794
0.181184
0.181576
0.181969
0.182364
0.182759
0.183155
0.183553
0.183951
0.184351
0.184752
0.185153
0.185556
0.18596
0.186365
0.186771
0.187178
0.187585
0.187995
0.188405
0.188816
0.189228
0.189641
0.190056
0.190471
0.190888
0.191306
0.191725
0.192145
0.192566
0.192988
0.193412
0.193837
0.194263
0.19469
0.195118
0.195548
0.195979
0.196411
0.196845
0.19728
0.197716
0.198153
0.198591
0.199028
0.19947
0.199913
0.200357
0.200803
0.20125
0.201699
0.202148
0.2026
0.203052
0.203506
0.203962
0.204419
0.204877
0.205337
0.205798
0.206261
0.206725
0.207191
0.207658
0.208126
0.208597
0.209068
0.209541
0.210016
0.210492
0.21097
0.211449
0.21193
0.212413
0.212896
0.213382
0.213869
0.214358
0.214848
0.21534
0.215833
0.216328
0.216825
0.217323
0.217823
0.218325
0.218828
0.219333
0.21984
0.220348
0.220858
0.221369
0.221882
0.222397
0.222914
0.223432
0.223952
0.224474
0.224997
0.225522
0.226049
0.226578
0.227108
0.22764
0.228174
0.22871
0.229247
0.229787
0.230328
0.230871
0.231415
0.231962
0.23251
0.23306
0.233612
0.234166
0.234722
0.23528
0.235839
0.236401
0.236964
0.237529
0.238096
0.238666
0.239237
0.23981
0.240385
0.240962
0.241541
0.242122
0.242704
0.243289
0.243876
0.244465
0.245057
0.24565
0.246245
0.246842
0.247442
0.248043
0.248647
0.249252
0.24986
0.25047
0.251083
0.251697
0.252313
0.252932
0.253553
0.254176
0.254799
0.255422
0.256052
0.256685
0.257319
0.257956
0.258595
0.259236
0.25988
0.260526
0.261174
0.261824
0.262477
0.263133
0.263791
0.264451
0.265113
0.265778
0.266446
0.267115
0.267788
0.268462
0.26914
0.269819
0.270501
0.271186
0.271873
0.272563
0.273256
0.27395
0.274648
0.275348
0.276051
0.276756
0.277464
0.278175
0.278888
0.279604
0.280322
0.281044
0.281768
0.282494
0.283224
0.283956
0.284691
0.285429
0.28617
0.286913
0.28766
0.288409
0.289161
0.289916
0.290674
0.291435
0.292199
0.292965
0.293735
0.294508
0.295284
0.296063
0.296844
0.297629
0.298418
0.299209
0.300003
0.300801
0.301601
0.302405
0.303212
0.304023
0.304837
0.305654
0.306474
0.307297
0.308124
0.308955
0.309789
0.310626
0.311466
0.31231
0.313158
0.314009
0.314864
0.315722
0.316583
0.317449
0.318318
0.31919
0.320066
0.320946
0.32183
0.322717
0.323608
0.324503
0.325402
0.326304
0.32721
0.32812
0.329034
0.329952
0.330873
0.331799
0.332729
0.333662
0.3346
0.335541
0.336484
0.337427
0.338381
0.339339
0.340301
0.341267
0.342238
0.343212
0.344191
0.345174
0.346161
0.347152
0.348147
0.349147
0.350151
0.351159
0.352171
0.353188
0.354209
0.355235
0.356264
0.357299
0.358337
0.359381
0.360428
0.36148
0.362537
0.363598
0.364664
0.365734
0.366809
0.367889
0.368974
0.370063
0.371156
0.372255
0.373358
0.374467
0.37558
0.376692
0.377807
0.378935
0.380068
0.381206
0.382349
0.383497
0.384649
0.385807
0.38697
0.388139
0.389312
0.390491
0.391675
0.392864
0.394059
0.395259
0.396465
0.397676
0.398893
0.400115
0.401343
0.402576
0.403816
0.40506
0.406311
0.407567
0.40883
0.410098
0.411372
0.412652
0.413938
0.415229
0.416527
0.417832
0.419142
0.420458
0.421781
0.42311
0.424445
0.425787
0.427135
0.428489
0.42985
0.431218
0.432592
0.433972
0.435359
0.436753
0.438154
0.439561
0.440975
0.442396
0.443824
0.445259
0.446701
0.44815
0.449606
0.451069
0.452539
0.454017
0.455501
0.456994
0.458493
0.46
0.461514
0.463036
0.464565
0.466097
0.467631
0.469183
0.470743
0.472311
0.473886
0.47547
0.477061
0.478661
0.480268
0.481884
0.483508
0.48514
0.48678
0.488429
0.490086
0.491752
0.493427
0.495109
0.496801
0.498501
0.500211
0.501929
0.503656
0.505392
0.507137
0.508891
0.510654
0.512427
0.514208
0.516
0.5178
0.519611
0.52143
0.52326
0.525099
0.526948
0.528806
0.530675
0.532554
0.534442
0.536341
0.53825
0.540169
0.542098
0.544038
0.545988
0.547948
0.549919
0.551901
0.553894
0.555897
0.557911
0.559936
0.56197
0.564001
0.566057
0.568124
0.570204
0.572294
0.574396
0.57651
0.578635
0.580772
0.582921
0.585081
0.587253
0.589437
0.591633
0.593841
0.596062
0.598294
0.600539
0.602797
0.605067
0.607349
0.609645
0.611953
0.614275
0.616609
0.618957
0.621318
0.623692
0.62608
0.628482
0.630897
0.633326
0.635769
0.638226
0.640698
0.643184
0.645684
0.648199
0.650728
0.653273
0.655832
0.658407
0.660997
0.663602
0.666223
0.668859
0.671511
0.674179
0.676863
0.679563
0.682279
0.685012
0.687761
0.690527
0.69331
0.69611
0.698927
0.701761
0.704613
0.707482
0.710368
0.713273
0.716197
0.719122
0.722063
0.725043
0.72804
0.731056
0.734089
0.737142
0.740213
0.743304
0.746414
0.749543
0.752692
0.75586
0.759049
0.762258
0.765486
0.768736
0.772006
0.775297
0.778608
0.781941
0.785296
0.788671
0.792069
0.795489
0.79893
0.802394
0.805881
0.80939
0.812922
0.816478
0.820057
0.82366
0.827286
0.830937
0.834612
0.838312
0.842036
0.845786
0.849561
0.853362
0.857188
0.861041
0.864919
0.868825
0.872757
0.876717
0.880703
0.884718
0.88876
0.89283
0.896929
0.901057
0.905213
0.909398
0.913613
0.917858
0.922132
0.926437
0.930772
0.935138
0.939535
0.943963
0.948423
0.952914
0.957437
0.961993
0.966581
0.971202
0.975856
0.980543
0.985264
0.990019
0.994808
0.999631
1.00449
1.00938
1.01427
1.01922
1.02422
1.02925
1.03432
1.03943
1.04457
1.04975
1.05497
1.06022
1.06552
1.07085
1.07622
1.08164
1.08709
1.09258
1.09811
1.10368
1.1093
1.11496
1.12065
1.1264
1.13218
1.13801
1.14388
1.1498
1.15576
1.16177
1.16782
1.17393
1.18007
1.18627
1.19252
1.19881
1.20515
1.21155
1.21799
1.22449
1.23104
1.23764
1.24429
1.251
1.25777
1.26459
1.27146
1.27839
1.28538
1.29243
1.29954
1.3067
1.31393
1.32122
1.32857
1.33598
1.34346
1.351
1.35861
1.36624
1.37392
1.38173
1.3896
1.39754
1.40555
1.41364
1.42179
1.43001
1.43831
1.44668
1.45512
1.46364
1.47224
1.48091
1.48966
1.49849
1.5074
1.51639
1.52547
1.53462
1.54386
1.55318
1.56259
1.57208
1.58167
1.59134
1.60109
1.61094
1.62088
1.63092
1.64104
1.65126
1.66158
1.67199
1.6825
1.69311
1.70382
1.71463
1.72554
1.73655
1.74767
1.75889
1.77022
1.78166
1.79321
1.80487
1.81664
1.82853
1.84053
1.85264
1.86487
1.87722
1.8897
1.90229
1.91501
1.92785
1.94082
1.95391
1.9671
1.98036
1.99386
2.00749
2.02126
2.03516
2.04921
2.0634
2.07774
2.09223
2.10686
2.12165
2.13659
2.15168
2.16694
2.18235
2.19793
2.21368
2.22959
2.24568
2.26194
2.27837
2.29498
2.31178
2.32876
2.34593
2.36329
2.38084
2.39859
2.41653
2.43468
2.45304
2.4716
2.49038
2.50937
2.52858
2.54801
2.56767
2.58756
2.60768
2.62802
2.64847
2.66931
2.6904
2.71174
2.73333
2.75519
2.77731
2.79969
2.82235
2.84528
2.86849
2.89199
2.91577
2.93985
2.96423
2.98891
3.0139
3.0392
3.06481
3.09076
3.11703
3.14363
3.17058
3.19787
3.22552
3.25352
3.28189
3.31063
3.33975
3.36926
3.39915
3.42945
3.46015
3.49127
3.5228
3.55477
3.58719
3.62005
3.65336
3.68691
3.72114
3.75579
3.79092
3.82655
3.86268
3.89933
3.9365
3.97419
4.01242
4.0512
4.09053
4.13044
4.17092
4.21199
4.25366
4.29595
4.33886
4.38241
4.4266
4.47146
4.517
4.56323
4.61016
4.65781
4.70619
4.75533
4.80525
4.85596
4.90748
4.95986
5.01311
5.06727
5.12239
5.17852
5.23571
5.29404
5.35359
5.41446
5.47678
5.54069
5.60636
5.67399
5.74383
5.81615
5.8913
5.96966
6.05166
6.13783
6.22874
6.32503
6.42745
6.53677
6.65388
6.77968
6.91512
7.06118
7.21878
7.38877
7.5718
7.7683
7.97829
8.20125
8.4359
8.68002
8.93013
9.18123
9.42651
9.65699
9.86137
10.0258
10.1341
10.1681
10.108
9.93451
9.62979
9.18051
8.58042
7.83344
6.95617
5.97922
4.94664
3.91259
2.93529
2.07493
1.36954
0.821411
0.442631
0.20914
0.0838769
0.0273149
0.00678804
0.00117701
0.000124546
6.51735e-06
1.17786e-07
3.56515e-10
2.42642e-10
)
;

boundaryField
{
    fixedWall
    {
        type            calculated;
        value           uniform 0;
    }
    outlet
    {
        type            calculated;
        value           uniform 0;
    }
    defaultFaces
    {
        type            empty;
    }
}


// ************************************************************************* //
