/*--------------------------------*- C++ -*----------------------------------*\
| =========                 |                                                 |
| \\      /  F ield         | OpenFOAM: The Open Source CFD Toolbox           |
|  \\    /   O peration     | Version:  2406                                  |
|   \\  /    A nd           | Website:  www.openfoam.com                      |
|    \\/     M anipulation  |                                                 |
\*---------------------------------------------------------------------------*/
FoamFile
{
    version     2.0;
    format      ascii;
    arch        "LSB;label=32;scalar=64";
    class       volScalarField;
    location    "7";
    object      T;
}
// * * * * * * * * * * * * * * * * * * * * * * * * * * * * * * * * * * * * * //

dimensions      [0 0 0 1 0 0 0];

internalField   nonuniform List<scalar> 
1000
(
308.529
336.673
362.368
386.061
408.075
428.651
447.977
466.202
483.446
499.807
515.37
530.205
544.37
557.919
570.896
583.34
595.287
606.767
617.808
628.434
638.669
648.533
658.044
667.218
676.072
684.62
692.875
700.85
708.555
716.001
723.199
730.157
736.885
743.39
749.681
755.765
761.649
767.34
772.843
778.166
783.314
788.291
793.105
797.76
802.26
806.611
810.816
814.881
818.81
822.606
826.274
829.818
833.24
836.546
839.738
842.819
845.793
848.663
851.433
854.104
856.681
859.166
861.561
863.87
866.095
868.239
870.303
872.292
874.206
876.048
877.821
879.527
881.167
882.744
884.26
885.717
887.117
888.461
889.752
890.991
892.18
893.321
894.415
895.465
896.47
897.434
898.357
899.241
900.087
900.897
901.672
902.413
903.122
903.799
904.446
905.065
905.655
906.218
906.756
907.269
907.758
908.225
908.669
909.092
909.496
909.879
910.245
910.592
910.923
911.237
911.535
911.819
912.088
912.343
912.586
912.816
913.034
913.241
913.437
913.622
913.798
913.964
914.121
914.27
914.41
914.542
914.668
914.787
914.898
915.004
915.104
915.197
915.286
915.369
915.447
915.521
915.591
915.656
915.717
915.775
915.829
915.88
915.927
915.972
916.014
916.053
916.09
916.124
916.156
916.186
916.214
916.241
916.265
916.288
916.309
916.329
916.347
916.364
916.38
916.395
916.409
916.422
916.433
916.444
916.454
916.464
916.472
916.48
916.487
916.494
916.5
916.506
916.511
916.516
916.52
916.524
916.527
916.531
916.534
916.536
916.538
916.54
916.542
916.544
916.545
916.546
916.547
916.548
916.549
916.549
916.55
916.55
916.55
916.55
916.55
916.55
916.55
916.55
916.549
916.549
916.548
916.548
916.547
916.547
916.546
916.545
916.544
916.544
916.543
916.542
916.541
916.54
916.539
916.538
916.537
916.536
916.535
916.534
916.533
916.532
916.531
916.53
916.529
916.528
916.527
916.526
916.525
916.524
916.523
916.522
916.521
916.52
916.519
916.518
916.517
916.516
916.515
916.514
916.513
916.512
916.511
916.51
916.509
916.508
916.507
916.506
916.505
916.504
916.503
916.503
916.502
916.501
916.5
916.499
916.498
916.498
916.497
916.496
916.495
916.495
916.494
916.493
916.493
916.492
916.491
916.491
916.49
916.49
916.489
916.488
916.488
916.487
916.487
916.486
916.486
916.486
916.485
916.485
916.484
916.484
916.484
916.483
916.483
916.483
916.482
916.482
916.482
916.482
916.482
916.481
916.481
916.481
916.481
916.481
916.481
916.481
916.481
916.481
916.481
916.481
916.481
916.481
916.481
916.481
916.481
916.481
916.481
916.481
916.481
916.481
916.482
916.482
916.482
916.482
916.482
916.483
916.483
916.483
916.483
916.484
916.484
916.484
916.485
916.485
916.485
916.486
916.486
916.486
916.487
916.487
916.488
916.488
916.488
916.489
916.489
916.49
916.49
916.491
916.491
916.492
916.492
916.493
916.493
916.493
916.494
916.494
916.495
916.495
916.496
916.496
916.497
916.497
916.498
916.498
916.499
916.499
916.5
916.5
916.501
916.501
916.502
916.502
916.503
916.503
916.503
916.504
916.504
916.505
916.505
916.505
916.506
916.506
916.507
916.507
916.507
916.508
916.508
916.508
916.509
916.509
916.509
916.509
916.51
916.51
916.51
916.51
916.511
916.511
916.511
916.511
916.511
916.512
916.512
916.512
916.512
916.512
916.512
916.512
916.512
916.512
916.512
916.512
916.512
916.512
916.513
916.513
916.513
916.513
916.512
916.512
916.512
916.512
916.512
916.512
916.512
916.512
916.512
916.512
916.512
916.512
916.512
916.512
916.512
916.512
916.512
916.512
916.512
916.511
916.511
916.511
916.511
916.511
916.511
916.511
916.511
916.511
916.511
916.511
916.511
916.511
916.511
916.511
916.511
916.511
916.511
916.511
916.511
916.511
916.511
916.511
916.511
916.511
916.511
916.511
916.511
916.511
916.511
916.511
916.511
916.511
916.512
916.512
916.512
916.512
916.512
916.512
916.512
916.512
916.512
916.512
916.512
916.513
916.513
916.513
916.513
916.513
916.513
916.513
916.513
916.513
916.513
916.514
916.514
916.514
916.514
916.514
916.514
916.514
916.514
916.514
916.514
916.514
916.515
916.515
916.515
916.515
916.515
916.515
916.515
916.515
916.515
916.515
916.515
916.515
916.515
916.515
916.515
916.515
916.515
916.515
916.515
916.515
916.515
916.515
916.515
916.515
916.515
916.515
916.515
916.515
916.515
916.515
916.515
916.515
916.515
916.515
916.515
916.515
916.515
916.515
916.515
916.515
916.514
916.514
916.514
916.514
916.514
916.514
916.514
916.514
916.514
916.514
916.514
916.514
916.513
916.513
916.513
916.513
916.513
916.513
916.513
916.513
916.513
916.513
916.513
916.512
916.512
916.512
916.512
916.512
916.512
916.512
916.512
916.512
916.512
916.512
916.512
916.512
916.512
916.512
916.512
916.512
916.512
916.512
916.512
916.512
916.513
916.513
916.513
916.513
916.513
916.513
916.513
916.513
916.513
916.514
916.514
916.514
916.514
916.514
916.515
916.515
916.515
916.515
916.515
916.516
916.516
916.516
916.516
916.516
916.517
916.517
916.517
916.517
916.517
916.518
916.518
916.518
916.518
916.518
916.518
916.519
916.519
916.519
916.519
916.519
916.519
916.519
916.52
916.52
916.52
916.52
916.52
916.52
916.52
916.52
916.52
916.52
916.52
916.52
916.52
916.52
916.52
916.52
916.52
916.52
916.52
916.52
916.52
916.52
916.52
916.52
916.52
916.52
916.519
916.519
916.519
916.519
916.519
916.519
916.519
916.519
916.518
916.518
916.518
916.518
916.518
916.518
916.518
916.517
916.517
916.517
916.517
916.517
916.516
916.516
916.516
916.516
916.516
916.515
916.515
916.515
916.515
916.514
916.514
916.514
916.514
916.513
916.513
916.513
916.513
916.512
916.512
916.512
916.512
916.511
916.511
916.511
916.511
916.51
916.51
916.51
916.51
916.509
916.509
916.509
916.509
916.509
916.508
916.508
916.508
916.508
916.508
916.508
916.508
916.508
916.508
916.508
916.508
916.508
916.508
916.508
916.508
916.509
916.509
916.509
916.509
916.51
916.51
916.51
916.511
916.511
916.511
916.512
916.512
916.513
916.513
916.514
916.515
916.515
916.516
916.516
916.517
916.518
916.518
916.519
916.52
916.52
916.521
916.522
916.522
916.523
916.524
916.524
916.525
916.526
916.526
916.527
916.527
916.528
916.528
916.529
916.529
916.53
916.53
916.531
916.531
916.531
916.531
916.532
916.532
916.532
916.532
916.532
916.532
916.532
916.532
916.532
916.532
916.531
916.531
916.531
916.53
916.53
916.53
916.529
916.528
916.528
916.527
916.527
916.526
916.525
916.525
916.524
916.523
916.522
916.521
916.521
916.52
916.519
916.518
916.517
916.516
916.515
916.514
916.513
916.513
916.512
916.511
916.51
916.509
916.508
916.507
916.507
916.506
916.505
916.504
916.504
916.503
916.502
916.502
916.501
916.501
916.5
916.5
916.5
916.499
916.499
916.499
916.499
916.499
916.498
916.498
916.498
916.498
916.498
916.498
916.499
916.499
916.499
916.499
916.499
916.5
916.5
916.5
916.501
916.501
916.502
916.502
916.502
916.503
916.503
916.504
916.504
916.504
916.505
916.505
916.506
916.506
916.506
916.507
916.507
916.507
916.508
916.508
916.508
916.509
916.509
916.509
916.509
916.509
916.509
916.509
916.509
916.509
916.509
916.509
916.509
916.509
916.509
916.509
916.509
916.508
916.508
916.508
916.508
916.507
916.507
916.507
916.507
916.506
916.506
916.506
916.505
916.505
916.505
916.504
916.504
916.504
916.503
916.503
916.502
916.502
916.502
916.501
916.501
916.501
916.5
916.5
916.5
916.499
916.499
916.499
916.498
916.498
916.498
916.497
916.497
916.496
916.495
916.494
916.493
916.492
916.491
916.489
916.488
916.485
916.482
916.479
916.475
916.47
916.464
916.457
916.449
916.439
916.426
916.412
916.395
916.374
916.35
916.322
916.288
916.248
916.201
916.147
916.082
916.007
915.92
915.818
915.699
915.562
915.403
915.22
915.009
914.767
914.489
914.171
913.808
913.395
912.926
912.395
911.794
911.116
910.354
909.498
908.539
907.467
906.272
904.943
903.468
901.835
900.03
898.04
895.85
893.445
890.809
887.925
884.775
881.339
877.598
873.529
869.11
864.314
859.114
853.481
847.379
840.773
833.62
825.874
817.482
808.385
798.513
787.789
776.123
763.412
749.537
734.595
718.286
700.076
680.047
657.966
633.574
606.583
576.681
543.545
506.855
466.334
421.786
373.157
320.597
)
;

boundaryField
{
    fixedWall
    {
        type            fixedValue;
        value           uniform 293;
    }
    outlet
    {
        type            inletOutlet;
        inletValue      uniform 293;
        value           uniform 293;
    }
    defaultFaces
    {
        type            empty;
    }
}


// ************************************************************************* //
