/*--------------------------------*- C++ -*----------------------------------*\
| =========                 |                                                 |
| \\      /  F ield         | OpenFOAM: The Open Source CFD Toolbox           |
|  \\    /   O peration     | Version:  2406                                  |
|   \\  /    A nd           | Website:  www.openfoam.com                      |
|    \\/     M anipulation  |                                                 |
\*---------------------------------------------------------------------------*/
FoamFile
{
    version     2.0;
    format      ascii;
    arch        "LSB;label=32;scalar=64";
    class       volVectorField;
    location    "7";
    object      U;
}
// * * * * * * * * * * * * * * * * * * * * * * * * * * * * * * * * * * * * * //

dimensions      [0 1 -1 0 0 0 0];

internalField   nonuniform List<vector> 
1000
(
(-1.77597e-06 0 0)
(-8.17366e-06 0 0)
(-2.04542e-05 0 0)
(-3.70525e-05 0 0)
(-5.68418e-05 0 0)
(-7.91582e-05 0 0)
(-0.000103552 0 0)
(-0.000129666 0 0)
(-0.000157207 0 0)
(-0.000185931 0 0)
(-0.000215639 0 0)
(-0.000246163 0 0)
(-0.000277359 0 0)
(-0.000309106 0 0)
(-0.000341298 0 0)
(-0.000373842 0 0)
(-0.000406658 0 0)
(-0.000439672 0 0)
(-0.000472823 0 0)
(-0.000506051 0 0)
(-0.000539306 0 0)
(-0.000572541 0 0)
(-0.000605715 0 0)
(-0.000638789 0 0)
(-0.000671728 0 0)
(-0.000704501 0 0)
(-0.000737078 0 0)
(-0.000769433 0 0)
(-0.000801543 0 0)
(-0.000833384 0 0)
(-0.000864935 0 0)
(-0.000896179 0 0)
(-0.000927098 0 0)
(-0.000957675 0 0)
(-0.000987898 0 0)
(-0.00101775 0 0)
(-0.00104722 0 0)
(-0.0010763 0 0)
(-0.00110498 0 0)
(-0.00113325 0 0)
(-0.0011611 0 0)
(-0.00118852 0 0)
(-0.00121551 0 0)
(-0.00124206 0 0)
(-0.00126817 0 0)
(-0.00129383 0 0)
(-0.00131904 0 0)
(-0.00134379 0 0)
(-0.00136809 0 0)
(-0.00139193 0 0)
(-0.0014153 0 0)
(-0.00143822 0 0)
(-0.00146068 0 0)
(-0.00148267 0 0)
(-0.0015042 0 0)
(-0.00152528 0 0)
(-0.00154589 0 0)
(-0.00156605 0 0)
(-0.00158576 0 0)
(-0.00160501 0 0)
(-0.00162382 0 0)
(-0.00164218 0 0)
(-0.0016601 0 0)
(-0.00167758 0 0)
(-0.00169462 0 0)
(-0.00171124 0 0)
(-0.00172743 0 0)
(-0.0017432 0 0)
(-0.00175855 0 0)
(-0.0017735 0 0)
(-0.00178803 0 0)
(-0.00180217 0 0)
(-0.00181592 0 0)
(-0.00182927 0 0)
(-0.00184224 0 0)
(-0.00185484 0 0)
(-0.00186707 0 0)
(-0.00187893 0 0)
(-0.00189044 0 0)
(-0.00190159 0 0)
(-0.0019124 0 0)
(-0.00192287 0 0)
(-0.00193301 0 0)
(-0.00194283 0 0)
(-0.00195232 0 0)
(-0.00196151 0 0)
(-0.00197039 0 0)
(-0.00197897 0 0)
(-0.00198727 0 0)
(-0.00199527 0 0)
(-0.002003 0 0)
(-0.00201046 0 0)
(-0.00201766 0 0)
(-0.0020246 0 0)
(-0.00203128 0 0)
(-0.00203772 0 0)
(-0.00204393 0 0)
(-0.0020499 0 0)
(-0.00205565 0 0)
(-0.00206117 0 0)
(-0.00206649 0 0)
(-0.0020716 0 0)
(-0.0020765 0 0)
(-0.00208122 0 0)
(-0.00208574 0 0)
(-0.00209008 0 0)
(-0.00209425 0 0)
(-0.00209824 0 0)
(-0.00210207 0 0)
(-0.00210573 0 0)
(-0.00210924 0 0)
(-0.0021126 0 0)
(-0.00211582 0 0)
(-0.0021189 0 0)
(-0.00212184 0 0)
(-0.00212465 0 0)
(-0.00212733 0 0)
(-0.0021299 0 0)
(-0.00213234 0 0)
(-0.00213468 0 0)
(-0.0021369 0 0)
(-0.00213901 0 0)
(-0.00214104 0 0)
(-0.00214297 0 0)
(-0.0021448 0 0)
(-0.00214655 0 0)
(-0.00214821 0 0)
(-0.00214979 0 0)
(-0.00215129 0 0)
(-0.00215272 0 0)
(-0.00215408 0 0)
(-0.00215537 0 0)
(-0.00215659 0 0)
(-0.00215775 0 0)
(-0.00215885 0 0)
(-0.00215989 0 0)
(-0.00216088 0 0)
(-0.00216181 0 0)
(-0.0021627 0 0)
(-0.00216354 0 0)
(-0.00216433 0 0)
(-0.00216508 0 0)
(-0.00216579 0 0)
(-0.00216646 0 0)
(-0.00216709 0 0)
(-0.00216769 0 0)
(-0.00216825 0 0)
(-0.00216878 0 0)
(-0.00216928 0 0)
(-0.00216975 0 0)
(-0.0021702 0 0)
(-0.00217062 0 0)
(-0.00217101 0 0)
(-0.00217138 0 0)
(-0.00217173 0 0)
(-0.00217206 0 0)
(-0.00217237 0 0)
(-0.00217266 0 0)
(-0.00217293 0 0)
(-0.00217318 0 0)
(-0.00217342 0 0)
(-0.00217365 0 0)
(-0.00217386 0 0)
(-0.00217405 0 0)
(-0.00217424 0 0)
(-0.00217441 0 0)
(-0.00217457 0 0)
(-0.00217472 0 0)
(-0.00217487 0 0)
(-0.002175 0 0)
(-0.00217512 0 0)
(-0.00217524 0 0)
(-0.00217535 0 0)
(-0.00217545 0 0)
(-0.00217554 0 0)
(-0.00217563 0 0)
(-0.00217571 0 0)
(-0.00217578 0 0)
(-0.00217586 0 0)
(-0.00217592 0 0)
(-0.00217598 0 0)
(-0.00217604 0 0)
(-0.00217609 0 0)
(-0.00217614 0 0)
(-0.00217619 0 0)
(-0.00217623 0 0)
(-0.00217627 0 0)
(-0.00217631 0 0)
(-0.00217634 0 0)
(-0.00217637 0 0)
(-0.0021764 0 0)
(-0.00217643 0 0)
(-0.00217646 0 0)
(-0.00217648 0 0)
(-0.0021765 0 0)
(-0.00217652 0 0)
(-0.00217654 0 0)
(-0.00217656 0 0)
(-0.00217657 0 0)
(-0.00217659 0 0)
(-0.0021766 0 0)
(-0.00217661 0 0)
(-0.00217662 0 0)
(-0.00217663 0 0)
(-0.00217664 0 0)
(-0.00217665 0 0)
(-0.00217666 0 0)
(-0.00217667 0 0)
(-0.00217667 0 0)
(-0.00217668 0 0)
(-0.00217669 0 0)
(-0.00217669 0 0)
(-0.00217669 0 0)
(-0.0021767 0 0)
(-0.0021767 0 0)
(-0.0021767 0 0)
(-0.0021767 0 0)
(-0.00217671 0 0)
(-0.00217671 0 0)
(-0.00217671 0 0)
(-0.00217671 0 0)
(-0.00217671 0 0)
(-0.00217671 0 0)
(-0.00217672 0 0)
(-0.00217671 0 0)
(-0.00217671 0 0)
(-0.00217671 0 0)
(-0.00217671 0 0)
(-0.00217671 0 0)
(-0.00217671 0 0)
(-0.00217671 0 0)
(-0.00217671 0 0)
(-0.00217671 0 0)
(-0.00217671 0 0)
(-0.0021767 0 0)
(-0.0021767 0 0)
(-0.0021767 0 0)
(-0.00217669 0 0)
(-0.0021767 0 0)
(-0.00217669 0 0)
(-0.00217669 0 0)
(-0.00217669 0 0)
(-0.00217668 0 0)
(-0.00217669 0 0)
(-0.00217668 0 0)
(-0.00217668 0 0)
(-0.00217667 0 0)
(-0.00217667 0 0)
(-0.00217667 0 0)
(-0.00217666 0 0)
(-0.00217666 0 0)
(-0.00217665 0 0)
(-0.00217665 0 0)
(-0.00217665 0 0)
(-0.00217664 0 0)
(-0.00217664 0 0)
(-0.00217663 0 0)
(-0.00217664 0 0)
(-0.00217663 0 0)
(-0.00217663 0 0)
(-0.00217662 0 0)
(-0.00217662 0 0)
(-0.00217661 0 0)
(-0.00217661 0 0)
(-0.0021766 0 0)
(-0.0021766 0 0)
(-0.00217659 0 0)
(-0.00217659 0 0)
(-0.00217659 0 0)
(-0.00217658 0 0)
(-0.00217658 0 0)
(-0.00217657 0 0)
(-0.00217657 0 0)
(-0.00217656 0 0)
(-0.00217656 0 0)
(-0.00217655 0 0)
(-0.00217655 0 0)
(-0.00217654 0 0)
(-0.00217654 0 0)
(-0.00217654 0 0)
(-0.00217653 0 0)
(-0.00217653 0 0)
(-0.00217652 0 0)
(-0.00217652 0 0)
(-0.00217651 0 0)
(-0.00217651 0 0)
(-0.0021765 0 0)
(-0.0021765 0 0)
(-0.00217649 0 0)
(-0.00217649 0 0)
(-0.00217648 0 0)
(-0.00217648 0 0)
(-0.00217648 0 0)
(-0.00217647 0 0)
(-0.00217647 0 0)
(-0.00217646 0 0)
(-0.00217646 0 0)
(-0.00217645 0 0)
(-0.00217645 0 0)
(-0.00217645 0 0)
(-0.00217644 0 0)
(-0.00217644 0 0)
(-0.00217643 0 0)
(-0.00217643 0 0)
(-0.00217642 0 0)
(-0.00217642 0 0)
(-0.00217642 0 0)
(-0.00217641 0 0)
(-0.00217641 0 0)
(-0.0021764 0 0)
(-0.0021764 0 0)
(-0.0021764 0 0)
(-0.00217639 0 0)
(-0.00217639 0 0)
(-0.00217639 0 0)
(-0.00217638 0 0)
(-0.00217638 0 0)
(-0.00217638 0 0)
(-0.00217637 0 0)
(-0.00217637 0 0)
(-0.00217637 0 0)
(-0.00217636 0 0)
(-0.00217636 0 0)
(-0.00217636 0 0)
(-0.00217635 0 0)
(-0.00217635 0 0)
(-0.00217635 0 0)
(-0.00217634 0 0)
(-0.00217635 0 0)
(-0.00217634 0 0)
(-0.00217634 0 0)
(-0.00217634 0 0)
(-0.00217633 0 0)
(-0.00217633 0 0)
(-0.00217633 0 0)
(-0.00217632 0 0)
(-0.00217633 0 0)
(-0.00217633 0 0)
(-0.00217632 0 0)
(-0.00217632 0 0)
(-0.00217632 0 0)
(-0.00217631 0 0)
(-0.00217632 0 0)
(-0.00217631 0 0)
(-0.00217632 0 0)
(-0.00217632 0 0)
(-0.00217631 0 0)
(-0.00217631 0 0)
(-0.00217631 0 0)
(-0.00217631 0 0)
(-0.00217632 0 0)
(-0.00217631 0 0)
(-0.00217631 0 0)
(-0.00217631 0 0)
(-0.00217631 0 0)
(-0.00217631 0 0)
(-0.00217631 0 0)
(-0.00217631 0 0)
(-0.00217631 0 0)
(-0.00217632 0 0)
(-0.00217631 0 0)
(-0.00217632 0 0)
(-0.00217632 0 0)
(-0.00217632 0 0)
(-0.00217632 0 0)
(-0.00217632 0 0)
(-0.00217632 0 0)
(-0.00217632 0 0)
(-0.00217632 0 0)
(-0.00217633 0 0)
(-0.00217632 0 0)
(-0.00217633 0 0)
(-0.00217633 0 0)
(-0.00217633 0 0)
(-0.00217633 0 0)
(-0.00217633 0 0)
(-0.00217634 0 0)
(-0.00217634 0 0)
(-0.00217634 0 0)
(-0.00217635 0 0)
(-0.00217634 0 0)
(-0.00217635 0 0)
(-0.00217635 0 0)
(-0.00217635 0 0)
(-0.00217636 0 0)
(-0.00217636 0 0)
(-0.00217636 0 0)
(-0.00217636 0 0)
(-0.00217636 0 0)
(-0.00217637 0 0)
(-0.00217637 0 0)
(-0.00217637 0 0)
(-0.00217637 0 0)
(-0.00217637 0 0)
(-0.00217638 0 0)
(-0.00217638 0 0)
(-0.00217638 0 0)
(-0.00217638 0 0)
(-0.00217639 0 0)
(-0.00217639 0 0)
(-0.00217639 0 0)
(-0.00217639 0 0)
(-0.00217639 0 0)
(-0.0021764 0 0)
(-0.0021764 0 0)
(-0.0021764 0 0)
(-0.0021764 0 0)
(-0.0021764 0 0)
(-0.0021764 0 0)
(-0.0021764 0 0)
(-0.0021764 0 0)
(-0.0021764 0 0)
(-0.0021764 0 0)
(-0.0021764 0 0)
(-0.0021764 0 0)
(-0.0021764 0 0)
(-0.0021764 0 0)
(-0.0021764 0 0)
(-0.0021764 0 0)
(-0.0021764 0 0)
(-0.0021764 0 0)
(-0.0021764 0 0)
(-0.00217641 0 0)
(-0.0021764 0 0)
(-0.0021764 0 0)
(-0.0021764 0 0)
(-0.0021764 0 0)
(-0.0021764 0 0)
(-0.0021764 0 0)
(-0.0021764 0 0)
(-0.00217639 0 0)
(-0.0021764 0 0)
(-0.00217639 0 0)
(-0.00217639 0 0)
(-0.00217639 0 0)
(-0.00217639 0 0)
(-0.00217639 0 0)
(-0.00217639 0 0)
(-0.00217638 0 0)
(-0.00217638 0 0)
(-0.00217638 0 0)
(-0.00217638 0 0)
(-0.00217638 0 0)
(-0.00217637 0 0)
(-0.00217637 0 0)
(-0.00217637 0 0)
(-0.00217637 0 0)
(-0.00217637 0 0)
(-0.00217636 0 0)
(-0.00217637 0 0)
(-0.00217636 0 0)
(-0.00217636 0 0)
(-0.00217636 0 0)
(-0.00217635 0 0)
(-0.00217636 0 0)
(-0.00217635 0 0)
(-0.00217635 0 0)
(-0.00217636 0 0)
(-0.00217635 0 0)
(-0.00217635 0 0)
(-0.00217635 0 0)
(-0.00217634 0 0)
(-0.00217635 0 0)
(-0.00217634 0 0)
(-0.00217634 0 0)
(-0.00217635 0 0)
(-0.00217634 0 0)
(-0.00217634 0 0)
(-0.00217634 0 0)
(-0.00217633 0 0)
(-0.00217634 0 0)
(-0.00217633 0 0)
(-0.00217634 0 0)
(-0.00217633 0 0)
(-0.00217633 0 0)
(-0.00217633 0 0)
(-0.00217633 0 0)
(-0.00217633 0 0)
(-0.00217633 0 0)
(-0.00217633 0 0)
(-0.00217633 0 0)
(-0.00217633 0 0)
(-0.00217633 0 0)
(-0.00217632 0 0)
(-0.00217633 0 0)
(-0.00217632 0 0)
(-0.00217633 0 0)
(-0.00217633 0 0)
(-0.00217632 0 0)
(-0.00217633 0 0)
(-0.00217633 0 0)
(-0.00217632 0 0)
(-0.00217633 0 0)
(-0.00217633 0 0)
(-0.00217632 0 0)
(-0.00217633 0 0)
(-0.00217633 0 0)
(-0.00217633 0 0)
(-0.00217633 0 0)
(-0.00217633 0 0)
(-0.00217633 0 0)
(-0.00217633 0 0)
(-0.00217633 0 0)
(-0.00217633 0 0)
(-0.00217633 0 0)
(-0.00217633 0 0)
(-0.00217633 0 0)
(-0.00217633 0 0)
(-0.00217633 0 0)
(-0.00217633 0 0)
(-0.00217633 0 0)
(-0.00217633 0 0)
(-0.00217633 0 0)
(-0.00217633 0 0)
(-0.00217633 0 0)
(-0.00217633 0 0)
(-0.00217633 0 0)
(-0.00217633 0 0)
(-0.00217633 0 0)
(-0.00217633 0 0)
(-0.00217633 0 0)
(-0.00217633 0 0)
(-0.00217633 0 0)
(-0.00217633 0 0)
(-0.00217633 0 0)
(-0.00217633 0 0)
(-0.00217633 0 0)
(-0.00217633 0 0)
(-0.00217634 0 0)
(-0.00217633 0 0)
(-0.00217633 0 0)
(-0.00217633 0 0)
(-0.00217633 0 0)
(-0.00217634 0 0)
(-0.00217633 0 0)
(-0.00217633 0 0)
(-0.00217633 0 0)
(-0.00217633 0 0)
(-0.00217633 0 0)
(-0.00217633 0 0)
(-0.00217633 0 0)
(-0.00217633 0 0)
(-0.00217633 0 0)
(-0.00217633 0 0)
(-0.00217632 0 0)
(-0.00217633 0 0)
(-0.00217632 0 0)
(-0.00217632 0 0)
(-0.00217632 0 0)
(-0.00217632 0 0)
(-0.00217633 0 0)
(-0.00217631 0 0)
(-0.00217632 0 0)
(-0.00217632 0 0)
(-0.00217631 0 0)
(-0.00217632 0 0)
(-0.00217631 0 0)
(-0.00217631 0 0)
(-0.0021763 0 0)
(-0.00217631 0 0)
(-0.0021763 0 0)
(-0.0021763 0 0)
(-0.0021763 0 0)
(-0.00217629 0 0)
(-0.00217629 0 0)
(-0.00217629 0 0)
(-0.00217629 0 0)
(-0.00217628 0 0)
(-0.00217628 0 0)
(-0.00217628 0 0)
(-0.00217627 0 0)
(-0.00217627 0 0)
(-0.00217627 0 0)
(-0.00217626 0 0)
(-0.00217626 0 0)
(-0.00217626 0 0)
(-0.00217625 0 0)
(-0.00217626 0 0)
(-0.00217625 0 0)
(-0.00217625 0 0)
(-0.00217624 0 0)
(-0.00217625 0 0)
(-0.00217624 0 0)
(-0.00217624 0 0)
(-0.00217624 0 0)
(-0.00217623 0 0)
(-0.00217623 0 0)
(-0.00217623 0 0)
(-0.00217622 0 0)
(-0.00217622 0 0)
(-0.00217622 0 0)
(-0.00217622 0 0)
(-0.00217622 0 0)
(-0.00217621 0 0)
(-0.00217621 0 0)
(-0.00217621 0 0)
(-0.00217621 0 0)
(-0.00217621 0 0)
(-0.00217621 0 0)
(-0.00217621 0 0)
(-0.00217621 0 0)
(-0.00217621 0 0)
(-0.00217621 0 0)
(-0.00217621 0 0)
(-0.0021762 0 0)
(-0.00217621 0 0)
(-0.0021762 0 0)
(-0.00217621 0 0)
(-0.0021762 0 0)
(-0.00217621 0 0)
(-0.00217621 0 0)
(-0.00217621 0 0)
(-0.00217621 0 0)
(-0.00217621 0 0)
(-0.00217621 0 0)
(-0.00217621 0 0)
(-0.00217621 0 0)
(-0.00217621 0 0)
(-0.00217621 0 0)
(-0.00217621 0 0)
(-0.00217622 0 0)
(-0.00217622 0 0)
(-0.00217622 0 0)
(-0.00217622 0 0)
(-0.00217622 0 0)
(-0.00217622 0 0)
(-0.00217622 0 0)
(-0.00217622 0 0)
(-0.00217622 0 0)
(-0.00217622 0 0)
(-0.00217622 0 0)
(-0.00217622 0 0)
(-0.00217623 0 0)
(-0.00217622 0 0)
(-0.00217623 0 0)
(-0.00217623 0 0)
(-0.00217623 0 0)
(-0.00217623 0 0)
(-0.00217623 0 0)
(-0.00217623 0 0)
(-0.00217623 0 0)
(-0.00217623 0 0)
(-0.00217623 0 0)
(-0.00217623 0 0)
(-0.00217623 0 0)
(-0.00217623 0 0)
(-0.00217623 0 0)
(-0.00217623 0 0)
(-0.00217623 0 0)
(-0.00217623 0 0)
(-0.00217623 0 0)
(-0.00217623 0 0)
(-0.00217623 0 0)
(-0.00217623 0 0)
(-0.00217624 0 0)
(-0.00217623 0 0)
(-0.00217623 0 0)
(-0.00217623 0 0)
(-0.00217623 0 0)
(-0.00217624 0 0)
(-0.00217623 0 0)
(-0.00217623 0 0)
(-0.00217623 0 0)
(-0.00217623 0 0)
(-0.00217623 0 0)
(-0.00217623 0 0)
(-0.00217623 0 0)
(-0.00217623 0 0)
(-0.00217623 0 0)
(-0.00217623 0 0)
(-0.00217623 0 0)
(-0.00217623 0 0)
(-0.00217623 0 0)
(-0.00217623 0 0)
(-0.00217623 0 0)
(-0.00217623 0 0)
(-0.00217623 0 0)
(-0.00217623 0 0)
(-0.00217623 0 0)
(-0.00217622 0 0)
(-0.00217623 0 0)
(-0.00217623 0 0)
(-0.00217622 0 0)
(-0.00217623 0 0)
(-0.00217622 0 0)
(-0.00217622 0 0)
(-0.00217621 0 0)
(-0.00217621 0 0)
(-0.00217621 0 0)
(-0.0021762 0 0)
(-0.00217621 0 0)
(-0.0021762 0 0)
(-0.0021762 0 0)
(-0.0021762 0 0)
(-0.00217619 0 0)
(-0.00217619 0 0)
(-0.00217618 0 0)
(-0.00217618 0 0)
(-0.00217617 0 0)
(-0.00217617 0 0)
(-0.00217616 0 0)
(-0.00217616 0 0)
(-0.00217615 0 0)
(-0.00217614 0 0)
(-0.00217614 0 0)
(-0.00217613 0 0)
(-0.00217612 0 0)
(-0.00217612 0 0)
(-0.00217611 0 0)
(-0.0021761 0 0)
(-0.00217609 0 0)
(-0.00217609 0 0)
(-0.00217608 0 0)
(-0.00217607 0 0)
(-0.00217606 0 0)
(-0.00217605 0 0)
(-0.00217604 0 0)
(-0.00217604 0 0)
(-0.00217603 0 0)
(-0.00217602 0 0)
(-0.00217601 0 0)
(-0.002176 0 0)
(-0.002176 0 0)
(-0.00217599 0 0)
(-0.00217598 0 0)
(-0.00217597 0 0)
(-0.00217597 0 0)
(-0.00217596 0 0)
(-0.00217595 0 0)
(-0.00217595 0 0)
(-0.00217594 0 0)
(-0.00217594 0 0)
(-0.00217593 0 0)
(-0.00217593 0 0)
(-0.00217593 0 0)
(-0.00217592 0 0)
(-0.00217592 0 0)
(-0.00217592 0 0)
(-0.00217591 0 0)
(-0.00217592 0 0)
(-0.00217591 0 0)
(-0.00217591 0 0)
(-0.00217591 0 0)
(-0.00217591 0 0)
(-0.00217592 0 0)
(-0.00217591 0 0)
(-0.00217592 0 0)
(-0.00217592 0 0)
(-0.00217592 0 0)
(-0.00217593 0 0)
(-0.00217593 0 0)
(-0.00217594 0 0)
(-0.00217594 0 0)
(-0.00217595 0 0)
(-0.00217595 0 0)
(-0.00217596 0 0)
(-0.00217596 0 0)
(-0.00217597 0 0)
(-0.00217598 0 0)
(-0.00217599 0 0)
(-0.00217599 0 0)
(-0.002176 0 0)
(-0.00217601 0 0)
(-0.00217602 0 0)
(-0.00217603 0 0)
(-0.00217604 0 0)
(-0.00217604 0 0)
(-0.00217605 0 0)
(-0.00217606 0 0)
(-0.00217607 0 0)
(-0.00217608 0 0)
(-0.00217608 0 0)
(-0.00217609 0 0)
(-0.0021761 0 0)
(-0.00217611 0 0)
(-0.00217611 0 0)
(-0.00217612 0 0)
(-0.00217613 0 0)
(-0.00217613 0 0)
(-0.00217614 0 0)
(-0.00217614 0 0)
(-0.00217615 0 0)
(-0.00217615 0 0)
(-0.00217616 0 0)
(-0.00217616 0 0)
(-0.00217616 0 0)
(-0.00217617 0 0)
(-0.00217617 0 0)
(-0.00217617 0 0)
(-0.00217617 0 0)
(-0.00217617 0 0)
(-0.00217617 0 0)
(-0.00217617 0 0)
(-0.00217617 0 0)
(-0.00217616 0 0)
(-0.00217616 0 0)
(-0.00217616 0 0)
(-0.00217615 0 0)
(-0.00217615 0 0)
(-0.00217614 0 0)
(-0.00217613 0 0)
(-0.00217613 0 0)
(-0.00217612 0 0)
(-0.00217611 0 0)
(-0.0021761 0 0)
(-0.00217609 0 0)
(-0.00217608 0 0)
(-0.00217607 0 0)
(-0.00217606 0 0)
(-0.00217605 0 0)
(-0.00217604 0 0)
(-0.00217603 0 0)
(-0.00217601 0 0)
(-0.002176 0 0)
(-0.00217599 0 0)
(-0.00217598 0 0)
(-0.00217596 0 0)
(-0.00217595 0 0)
(-0.00217594 0 0)
(-0.00217592 0 0)
(-0.00217591 0 0)
(-0.0021759 0 0)
(-0.00217589 0 0)
(-0.00217587 0 0)
(-0.00217586 0 0)
(-0.00217585 0 0)
(-0.00217584 0 0)
(-0.00217583 0 0)
(-0.00217581 0 0)
(-0.0021758 0 0)
(-0.00217579 0 0)
(-0.00217578 0 0)
(-0.00217577 0 0)
(-0.00217576 0 0)
(-0.00217576 0 0)
(-0.00217575 0 0)
(-0.00217574 0 0)
(-0.00217574 0 0)
(-0.00217573 0 0)
(-0.00217572 0 0)
(-0.00217572 0 0)
(-0.00217571 0 0)
(-0.00217571 0 0)
(-0.00217571 0 0)
(-0.0021757 0 0)
(-0.00217571 0 0)
(-0.0021757 0 0)
(-0.0021757 0 0)
(-0.0021757 0 0)
(-0.0021757 0 0)
(-0.0021757 0 0)
(-0.0021757 0 0)
(-0.0021757 0 0)
(-0.0021757 0 0)
(-0.00217571 0 0)
(-0.00217571 0 0)
(-0.00217571 0 0)
(-0.00217571 0 0)
(-0.00217572 0 0)
(-0.00217572 0 0)
(-0.00217572 0 0)
(-0.00217572 0 0)
(-0.00217573 0 0)
(-0.00217573 0 0)
(-0.00217573 0 0)
(-0.00217573 0 0)
(-0.00217573 0 0)
(-0.00217574 0 0)
(-0.00217574 0 0)
(-0.00217574 0 0)
(-0.00217574 0 0)
(-0.00217574 0 0)
(-0.00217574 0 0)
(-0.00217574 0 0)
(-0.00217574 0 0)
(-0.00217574 0 0)
(-0.00217574 0 0)
(-0.00217574 0 0)
(-0.00217574 0 0)
(-0.00217573 0 0)
(-0.00217573 0 0)
(-0.00217573 0 0)
(-0.00217573 0 0)
(-0.00217572 0 0)
(-0.00217572 0 0)
(-0.00217572 0 0)
(-0.00217571 0 0)
(-0.00217571 0 0)
(-0.0021757 0 0)
(-0.0021757 0 0)
(-0.00217569 0 0)
(-0.00217569 0 0)
(-0.00217568 0 0)
(-0.00217567 0 0)
(-0.00217567 0 0)
(-0.00217566 0 0)
(-0.00217566 0 0)
(-0.00217565 0 0)
(-0.00217565 0 0)
(-0.00217564 0 0)
(-0.00217563 0 0)
(-0.00217563 0 0)
(-0.00217563 0 0)
(-0.00217563 0 0)
(-0.00217563 0 0)
(-0.00217563 0 0)
(-0.00217564 0 0)
(-0.00217565 0 0)
(-0.00217566 0 0)
(-0.00217568 0 0)
(-0.00217571 0 0)
(-0.00217574 0 0)
(-0.00217578 0 0)
(-0.00217583 0 0)
(-0.00217589 0 0)
(-0.00217597 0 0)
(-0.00217607 0 0)
(-0.00217619 0 0)
(-0.00217634 0 0)
(-0.00217651 0 0)
(-0.00217673 0 0)
(-0.00217699 0 0)
(-0.00217729 0 0)
(-0.00217766 0 0)
(-0.0021781 0 0)
(-0.00217862 0 0)
(-0.00217924 0 0)
(-0.00217997 0 0)
(-0.00218084 0 0)
(-0.00218186 0 0)
(-0.00218306 0 0)
(-0.00218447 0 0)
(-0.00218611 0 0)
(-0.00218804 0 0)
(-0.00219028 0 0)
(-0.00219289 0 0)
(-0.00219592 0 0)
(-0.00219943 0 0)
(-0.00220349 0 0)
(-0.00220817 0 0)
(-0.00221356 0 0)
(-0.00221974 0 0)
(-0.00222683 0 0)
(-0.00223493 0 0)
(-0.00224416 0 0)
(-0.00225467 0 0)
(-0.00226659 0 0)
(-0.00228009 0 0)
(-0.00229533 0 0)
(-0.0023125 0 0)
(-0.00233179 0 0)
(-0.00235341 0 0)
(-0.00237758 0 0)
(-0.00240453 0 0)
(-0.00243449 0 0)
(-0.00246771 0 0)
(-0.00250444 0 0)
(-0.00254495 0 0)
(-0.00258949 0 0)
(-0.00263833 0 0)
(-0.00269172 0 0)
(-0.00274992 0 0)
(-0.00281316 0 0)
(-0.00288168 0 0)
(-0.00295567 0 0)
(-0.00303534 0 0)
(-0.00312082 0 0)
(-0.00321223 0 0)
(-0.00330966 0 0)
(-0.00341312 0 0)
(-0.00352259 0 0)
(-0.00363798 0 0)
(-0.00375912 0 0)
(-0.00388577 0 0)
(-0.00401759 0 0)
(-0.00415416 0 0)
(-0.00429495 0 0)
(-0.0044393 0 0)
(-0.00458644 0 0)
(-0.00473547 0 0)
(-0.00488534 0 0)
(-0.00503482 0 0)
(-0.00518255 0 0)
(-0.0053269 0 0)
(-0.0054666 0 0)
(-0.00559986 0 0)
(-0.00572196 0 0)
(-0.00582852 0 0)
(-0.00591766 0 0)
(-0.00598752 0 0)
(-0.00603384 0 0)
(-0.00605102 0 0)
(-0.00603374 0 0)
(-0.00597285 0 0)
(-0.0058611 0 0)
(-0.0056899 0 0)
(-0.00544677 0 0)
(-0.00509155 0 0)
(-0.00454169 0 0)
(-0.00389907 0 0)
)
;

boundaryField
{
    fixedWall
    {
        type            fixedValue;
        value           uniform (0 0 0);
    }
    outlet
    {
        type            pressureInletOutletVelocity;
        value           uniform (-0.00389907 0 0);
    }
    defaultFaces
    {
        type            empty;
    }
}


// ************************************************************************* //
