/*--------------------------------*- C++ -*----------------------------------*\
| =========                 |                                                 |
| \\      /  F ield         | OpenFOAM: The Open Source CFD Toolbox           |
|  \\    /   O peration     | Version:  2406                                  |
|   \\  /    A nd           | Website:  www.openfoam.com                      |
|    \\/     M anipulation  |                                                 |
\*---------------------------------------------------------------------------*/
FoamFile
{
    version     2.0;
    format      ascii;
    arch        "LSB;label=32;scalar=64";
    class       surfaceScalarField;
    location    "6.9";
    object      phi;
}
// * * * * * * * * * * * * * * * * * * * * * * * * * * * * * * * * * * * * * //

dimensions      [1 0 -1 0 0 0 0];

oriented        oriented;

internalField   nonuniform List<scalar> 
999
(
-3.24263e-08
-1.04323e-07
-1.9857e-07
-3.05809e-07
-4.20576e-07
-5.39519e-07
-6.60524e-07
-7.82199e-07
-9.0363e-07
-1.0242e-06
-1.1435e-06
-1.26123e-06
-1.37721e-06
-1.49132e-06
-1.60348e-06
-1.71364e-06
-1.82178e-06
-1.92789e-06
-2.03197e-06
-2.13404e-06
-2.23413e-06
-2.33225e-06
-2.42842e-06
-2.52269e-06
-2.61507e-06
-2.70559e-06
-2.7943e-06
-2.88121e-06
-2.96636e-06
-3.04978e-06
-3.13149e-06
-3.21152e-06
-3.2899e-06
-3.36666e-06
-3.44182e-06
-3.51541e-06
-3.58746e-06
-3.65798e-06
-3.727e-06
-3.79455e-06
-3.86064e-06
-3.9253e-06
-3.98855e-06
-4.05041e-06
-4.1109e-06
-4.17004e-06
-4.22786e-06
-4.28436e-06
-4.33958e-06
-4.39353e-06
-4.44622e-06
-4.49768e-06
-4.54793e-06
-4.59698e-06
-4.64486e-06
-4.69157e-06
-4.73713e-06
-4.78157e-06
-4.82491e-06
-4.86715e-06
-4.90832e-06
-4.94843e-06
-4.9875e-06
-5.02555e-06
-5.06259e-06
-5.09865e-06
-5.13373e-06
-5.16785e-06
-5.20103e-06
-5.23329e-06
-5.26465e-06
-5.29511e-06
-5.3247e-06
-5.35342e-06
-5.38131e-06
-5.40838e-06
-5.43463e-06
-5.46009e-06
-5.48477e-06
-5.50869e-06
-5.53186e-06
-5.55431e-06
-5.57603e-06
-5.59706e-06
-5.61741e-06
-5.63709e-06
-5.65611e-06
-5.6745e-06
-5.69227e-06
-5.70942e-06
-5.72598e-06
-5.74197e-06
-5.75739e-06
-5.77226e-06
-5.7866e-06
-5.80041e-06
-5.81372e-06
-5.82653e-06
-5.83886e-06
-5.85073e-06
-5.86214e-06
-5.87312e-06
-5.88366e-06
-5.89379e-06
-5.90352e-06
-5.91286e-06
-5.92182e-06
-5.93042e-06
-5.93866e-06
-5.94656e-06
-5.95412e-06
-5.96137e-06
-5.96831e-06
-5.97494e-06
-5.98129e-06
-5.98736e-06
-5.99316e-06
-5.9987e-06
-6.00398e-06
-6.00901e-06
-6.01381e-06
-6.01838e-06
-6.02275e-06
-6.02693e-06
-6.0309e-06
-6.03469e-06
-6.03829e-06
-6.04171e-06
-6.04497e-06
-6.04807e-06
-6.05101e-06
-6.0538e-06
-6.05646e-06
-6.05897e-06
-6.06136e-06
-6.06362e-06
-6.06577e-06
-6.0678e-06
-6.06972e-06
-6.07154e-06
-6.07327e-06
-6.0749e-06
-6.07644e-06
-6.07789e-06
-6.07927e-06
-6.08057e-06
-6.08179e-06
-6.08295e-06
-6.08404e-06
-6.08506e-06
-6.08603e-06
-6.08694e-06
-6.0878e-06
-6.08861e-06
-6.08937e-06
-6.09008e-06
-6.09075e-06
-6.09138e-06
-6.09198e-06
-6.09253e-06
-6.09306e-06
-6.09355e-06
-6.09401e-06
-6.09444e-06
-6.09484e-06
-6.09522e-06
-6.09558e-06
-6.09591e-06
-6.09622e-06
-6.09651e-06
-6.09679e-06
-6.09704e-06
-6.09728e-06
-6.0975e-06
-6.09771e-06
-6.09791e-06
-6.09809e-06
-6.09826e-06
-6.09842e-06
-6.09857e-06
-6.0987e-06
-6.09883e-06
-6.09895e-06
-6.09907e-06
-6.09917e-06
-6.09927e-06
-6.09936e-06
-6.09945e-06
-6.09953e-06
-6.0996e-06
-6.09968e-06
-6.09974e-06
-6.0998e-06
-6.09986e-06
-6.09991e-06
-6.09996e-06
-6.10001e-06
-6.10005e-06
-6.10009e-06
-6.10013e-06
-6.10017e-06
-6.1002e-06
-6.10023e-06
-6.10026e-06
-6.10029e-06
-6.10031e-06
-6.10034e-06
-6.10036e-06
-6.10038e-06
-6.1004e-06
-6.10042e-06
-6.10044e-06
-6.10045e-06
-6.10047e-06
-6.10048e-06
-6.1005e-06
-6.10051e-06
-6.10052e-06
-6.10053e-06
-6.10054e-06
-6.10055e-06
-6.10056e-06
-6.10057e-06
-6.10057e-06
-6.10058e-06
-6.10059e-06
-6.10059e-06
-6.1006e-06
-6.1006e-06
-6.1006e-06
-6.10061e-06
-6.10061e-06
-6.10061e-06
-6.10061e-06
-6.10062e-06
-6.10062e-06
-6.10062e-06
-6.10062e-06
-6.10062e-06
-6.10062e-06
-6.10062e-06
-6.10062e-06
-6.10061e-06
-6.10061e-06
-6.10061e-06
-6.10061e-06
-6.1006e-06
-6.1006e-06
-6.1006e-06
-6.10059e-06
-6.10059e-06
-6.10058e-06
-6.10058e-06
-6.10057e-06
-6.10057e-06
-6.10056e-06
-6.10056e-06
-6.10055e-06
-6.10054e-06
-6.10053e-06
-6.10053e-06
-6.10052e-06
-6.10051e-06
-6.1005e-06
-6.1005e-06
-6.10049e-06
-6.10048e-06
-6.10047e-06
-6.10046e-06
-6.10045e-06
-6.10044e-06
-6.10043e-06
-6.10042e-06
-6.10041e-06
-6.1004e-06
-6.10039e-06
-6.10038e-06
-6.10037e-06
-6.10036e-06
-6.10035e-06
-6.10034e-06
-6.10033e-06
-6.10032e-06
-6.10031e-06
-6.10029e-06
-6.10028e-06
-6.10027e-06
-6.10026e-06
-6.10025e-06
-6.10024e-06
-6.10022e-06
-6.10021e-06
-6.1002e-06
-6.10019e-06
-6.10018e-06
-6.10017e-06
-6.10015e-06
-6.10014e-06
-6.10013e-06
-6.10012e-06
-6.10011e-06
-6.10009e-06
-6.10008e-06
-6.10007e-06
-6.10006e-06
-6.10004e-06
-6.10003e-06
-6.10002e-06
-6.10001e-06
-6.09999e-06
-6.09998e-06
-6.09997e-06
-6.09996e-06
-6.09995e-06
-6.09994e-06
-6.09992e-06
-6.09991e-06
-6.0999e-06
-6.09989e-06
-6.09988e-06
-6.09987e-06
-6.09986e-06
-6.09984e-06
-6.09983e-06
-6.09982e-06
-6.09981e-06
-6.0998e-06
-6.09979e-06
-6.09978e-06
-6.09977e-06
-6.09976e-06
-6.09976e-06
-6.09975e-06
-6.09974e-06
-6.09973e-06
-6.09972e-06
-6.09971e-06
-6.0997e-06
-6.0997e-06
-6.09969e-06
-6.09968e-06
-6.09967e-06
-6.09967e-06
-6.09966e-06
-6.09965e-06
-6.09965e-06
-6.09964e-06
-6.09964e-06
-6.09963e-06
-6.09963e-06
-6.09962e-06
-6.09962e-06
-6.09961e-06
-6.09961e-06
-6.09961e-06
-6.09961e-06
-6.0996e-06
-6.0996e-06
-6.0996e-06
-6.0996e-06
-6.0996e-06
-6.0996e-06
-6.0996e-06
-6.0996e-06
-6.0996e-06
-6.0996e-06
-6.0996e-06
-6.0996e-06
-6.0996e-06
-6.0996e-06
-6.0996e-06
-6.09961e-06
-6.09961e-06
-6.09961e-06
-6.09962e-06
-6.09962e-06
-6.09962e-06
-6.09963e-06
-6.09963e-06
-6.09964e-06
-6.09964e-06
-6.09965e-06
-6.09965e-06
-6.09966e-06
-6.09966e-06
-6.09966e-06
-6.09967e-06
-6.09968e-06
-6.09968e-06
-6.09969e-06
-6.09969e-06
-6.0997e-06
-6.0997e-06
-6.09971e-06
-6.09971e-06
-6.09972e-06
-6.09972e-06
-6.09973e-06
-6.09973e-06
-6.09974e-06
-6.09974e-06
-6.09975e-06
-6.09975e-06
-6.09976e-06
-6.09976e-06
-6.09977e-06
-6.09977e-06
-6.09977e-06
-6.09978e-06
-6.09978e-06
-6.09978e-06
-6.09979e-06
-6.09979e-06
-6.09979e-06
-6.09979e-06
-6.09979e-06
-6.09979e-06
-6.09979e-06
-6.09979e-06
-6.09979e-06
-6.09979e-06
-6.09979e-06
-6.09979e-06
-6.09979e-06
-6.09979e-06
-6.09979e-06
-6.09978e-06
-6.09978e-06
-6.09978e-06
-6.09978e-06
-6.09977e-06
-6.09977e-06
-6.09976e-06
-6.09976e-06
-6.09976e-06
-6.09975e-06
-6.09975e-06
-6.09974e-06
-6.09974e-06
-6.09973e-06
-6.09973e-06
-6.09972e-06
-6.09972e-06
-6.09971e-06
-6.09971e-06
-6.0997e-06
-6.09969e-06
-6.09969e-06
-6.09968e-06
-6.09968e-06
-6.09967e-06
-6.09967e-06
-6.09966e-06
-6.09966e-06
-6.09965e-06
-6.09965e-06
-6.09964e-06
-6.09964e-06
-6.09963e-06
-6.09963e-06
-6.09962e-06
-6.09962e-06
-6.09961e-06
-6.09961e-06
-6.09961e-06
-6.0996e-06
-6.0996e-06
-6.09959e-06
-6.09959e-06
-6.09959e-06
-6.09958e-06
-6.09958e-06
-6.09957e-06
-6.09957e-06
-6.09957e-06
-6.09957e-06
-6.09956e-06
-6.09956e-06
-6.09956e-06
-6.09956e-06
-6.09956e-06
-6.09955e-06
-6.09955e-06
-6.09955e-06
-6.09955e-06
-6.09955e-06
-6.09955e-06
-6.09955e-06
-6.09955e-06
-6.09954e-06
-6.09954e-06
-6.09954e-06
-6.09954e-06
-6.09954e-06
-6.09954e-06
-6.09954e-06
-6.09954e-06
-6.09954e-06
-6.09954e-06
-6.09954e-06
-6.09954e-06
-6.09954e-06
-6.09954e-06
-6.09954e-06
-6.09954e-06
-6.09954e-06
-6.09954e-06
-6.09954e-06
-6.09954e-06
-6.09955e-06
-6.09955e-06
-6.09955e-06
-6.09955e-06
-6.09955e-06
-6.09955e-06
-6.09955e-06
-6.09955e-06
-6.09955e-06
-6.09955e-06
-6.09955e-06
-6.09955e-06
-6.09955e-06
-6.09956e-06
-6.09956e-06
-6.09956e-06
-6.09956e-06
-6.09956e-06
-6.09956e-06
-6.09956e-06
-6.09956e-06
-6.09956e-06
-6.09956e-06
-6.09956e-06
-6.09956e-06
-6.09956e-06
-6.09956e-06
-6.09956e-06
-6.09956e-06
-6.09956e-06
-6.09956e-06
-6.09956e-06
-6.09956e-06
-6.09956e-06
-6.09956e-06
-6.09956e-06
-6.09955e-06
-6.09955e-06
-6.09955e-06
-6.09955e-06
-6.09954e-06
-6.09954e-06
-6.09954e-06
-6.09953e-06
-6.09953e-06
-6.09952e-06
-6.09952e-06
-6.09951e-06
-6.09951e-06
-6.0995e-06
-6.0995e-06
-6.09949e-06
-6.09949e-06
-6.09948e-06
-6.09947e-06
-6.09946e-06
-6.09946e-06
-6.09945e-06
-6.09944e-06
-6.09943e-06
-6.09942e-06
-6.09941e-06
-6.0994e-06
-6.0994e-06
-6.09939e-06
-6.09938e-06
-6.09937e-06
-6.09936e-06
-6.09935e-06
-6.09934e-06
-6.09933e-06
-6.09932e-06
-6.09931e-06
-6.0993e-06
-6.09929e-06
-6.09928e-06
-6.09928e-06
-6.09927e-06
-6.09926e-06
-6.09925e-06
-6.09924e-06
-6.09924e-06
-6.09923e-06
-6.09922e-06
-6.09922e-06
-6.09921e-06
-6.09921e-06
-6.0992e-06
-6.0992e-06
-6.09919e-06
-6.09919e-06
-6.09918e-06
-6.09918e-06
-6.09918e-06
-6.09918e-06
-6.09918e-06
-6.09917e-06
-6.09917e-06
-6.09917e-06
-6.09917e-06
-6.09917e-06
-6.09917e-06
-6.09917e-06
-6.09917e-06
-6.09917e-06
-6.09918e-06
-6.09918e-06
-6.09918e-06
-6.09918e-06
-6.09918e-06
-6.09919e-06
-6.09919e-06
-6.09919e-06
-6.09919e-06
-6.09919e-06
-6.0992e-06
-6.0992e-06
-6.0992e-06
-6.0992e-06
-6.09921e-06
-6.09921e-06
-6.09921e-06
-6.09921e-06
-6.09922e-06
-6.09922e-06
-6.09922e-06
-6.09922e-06
-6.09922e-06
-6.09923e-06
-6.09923e-06
-6.09923e-06
-6.09923e-06
-6.09923e-06
-6.09923e-06
-6.09923e-06
-6.09923e-06
-6.09923e-06
-6.09923e-06
-6.09923e-06
-6.09923e-06
-6.09923e-06
-6.09923e-06
-6.09923e-06
-6.09923e-06
-6.09923e-06
-6.09923e-06
-6.09923e-06
-6.09923e-06
-6.09923e-06
-6.09923e-06
-6.09923e-06
-6.09923e-06
-6.09923e-06
-6.09923e-06
-6.09924e-06
-6.09924e-06
-6.09924e-06
-6.09924e-06
-6.09924e-06
-6.09924e-06
-6.09924e-06
-6.09924e-06
-6.09924e-06
-6.09925e-06
-6.09925e-06
-6.09925e-06
-6.09925e-06
-6.09925e-06
-6.09925e-06
-6.09925e-06
-6.09925e-06
-6.09925e-06
-6.09925e-06
-6.09925e-06
-6.09925e-06
-6.09924e-06
-6.09924e-06
-6.09924e-06
-6.09923e-06
-6.09923e-06
-6.09922e-06
-6.09922e-06
-6.09921e-06
-6.0992e-06
-6.09919e-06
-6.09918e-06
-6.09917e-06
-6.09916e-06
-6.09915e-06
-6.09914e-06
-6.09912e-06
-6.09911e-06
-6.09909e-06
-6.09907e-06
-6.09905e-06
-6.09904e-06
-6.09901e-06
-6.09899e-06
-6.09897e-06
-6.09895e-06
-6.09893e-06
-6.0989e-06
-6.09888e-06
-6.09885e-06
-6.09883e-06
-6.0988e-06
-6.09877e-06
-6.09875e-06
-6.09872e-06
-6.09869e-06
-6.09867e-06
-6.09864e-06
-6.09861e-06
-6.09858e-06
-6.09856e-06
-6.09853e-06
-6.09851e-06
-6.09848e-06
-6.09846e-06
-6.09844e-06
-6.09841e-06
-6.09839e-06
-6.09837e-06
-6.09835e-06
-6.09833e-06
-6.09832e-06
-6.0983e-06
-6.09829e-06
-6.09828e-06
-6.09827e-06
-6.09826e-06
-6.09825e-06
-6.09824e-06
-6.09824e-06
-6.09824e-06
-6.09823e-06
-6.09823e-06
-6.09824e-06
-6.09824e-06
-6.09825e-06
-6.09825e-06
-6.09826e-06
-6.09827e-06
-6.09829e-06
-6.0983e-06
-6.09831e-06
-6.09833e-06
-6.09835e-06
-6.09837e-06
-6.09839e-06
-6.09841e-06
-6.09843e-06
-6.09845e-06
-6.09847e-06
-6.0985e-06
-6.09852e-06
-6.09855e-06
-6.09858e-06
-6.0986e-06
-6.09863e-06
-6.09865e-06
-6.09868e-06
-6.0987e-06
-6.09873e-06
-6.09875e-06
-6.09878e-06
-6.0988e-06
-6.09883e-06
-6.09885e-06
-6.09887e-06
-6.09889e-06
-6.09891e-06
-6.09893e-06
-6.09895e-06
-6.09897e-06
-6.09898e-06
-6.099e-06
-6.09901e-06
-6.09902e-06
-6.09903e-06
-6.09903e-06
-6.09904e-06
-6.09904e-06
-6.09904e-06
-6.09904e-06
-6.09904e-06
-6.09904e-06
-6.09903e-06
-6.09902e-06
-6.09901e-06
-6.099e-06
-6.09898e-06
-6.09897e-06
-6.09895e-06
-6.09893e-06
-6.09891e-06
-6.09888e-06
-6.09886e-06
-6.09883e-06
-6.0988e-06
-6.09877e-06
-6.09874e-06
-6.09871e-06
-6.09867e-06
-6.09864e-06
-6.0986e-06
-6.09857e-06
-6.09853e-06
-6.09849e-06
-6.09845e-06
-6.09841e-06
-6.09838e-06
-6.09834e-06
-6.0983e-06
-6.09826e-06
-6.09822e-06
-6.09818e-06
-6.09815e-06
-6.09811e-06
-6.09808e-06
-6.09804e-06
-6.09801e-06
-6.09798e-06
-6.09795e-06
-6.09792e-06
-6.09789e-06
-6.09787e-06
-6.09784e-06
-6.09782e-06
-6.0978e-06
-6.09778e-06
-6.09776e-06
-6.09775e-06
-6.09773e-06
-6.09772e-06
-6.09771e-06
-6.0977e-06
-6.09769e-06
-6.09769e-06
-6.09769e-06
-6.09769e-06
-6.09769e-06
-6.09769e-06
-6.09769e-06
-6.09769e-06
-6.0977e-06
-6.0977e-06
-6.09771e-06
-6.09771e-06
-6.09772e-06
-6.09773e-06
-6.09774e-06
-6.09774e-06
-6.09775e-06
-6.09776e-06
-6.09776e-06
-6.09777e-06
-6.09778e-06
-6.09778e-06
-6.09779e-06
-6.09779e-06
-6.0978e-06
-6.0978e-06
-6.0978e-06
-6.0978e-06
-6.0978e-06
-6.0978e-06
-6.09779e-06
-6.09779e-06
-6.09778e-06
-6.09778e-06
-6.09777e-06
-6.09776e-06
-6.09775e-06
-6.09774e-06
-6.09773e-06
-6.09772e-06
-6.09771e-06
-6.09769e-06
-6.09768e-06
-6.09766e-06
-6.09765e-06
-6.09763e-06
-6.09761e-06
-6.09759e-06
-6.09757e-06
-6.09756e-06
-6.09753e-06
-6.09751e-06
-6.09749e-06
-6.09747e-06
-6.09745e-06
-6.09742e-06
-6.0974e-06
-6.09738e-06
-6.09736e-06
-6.09735e-06
-6.09733e-06
-6.09732e-06
-6.09732e-06
-6.09731e-06
-6.09732e-06
-6.09734e-06
-6.09737e-06
-6.09741e-06
-6.09747e-06
-6.09755e-06
-6.09766e-06
-6.0978e-06
-6.09798e-06
-6.09821e-06
-6.0985e-06
-6.09885e-06
-6.09928e-06
-6.09982e-06
-6.10047e-06
-6.10126e-06
-6.10222e-06
-6.10338e-06
-6.10477e-06
-6.10645e-06
-6.10846e-06
-6.11086e-06
-6.11372e-06
-6.11713e-06
-6.12118e-06
-6.12597e-06
-6.13164e-06
-6.13832e-06
-6.14618e-06
-6.15541e-06
-6.16622e-06
-6.17885e-06
-6.19358e-06
-6.21072e-06
-6.23061e-06
-6.25363e-06
-6.28022e-06
-6.31086e-06
-6.34607e-06
-6.38643e-06
-6.43258e-06
-6.48522e-06
-6.54511e-06
-6.61306e-06
-6.68997e-06
-6.77679e-06
-6.87454e-06
-6.98432e-06
-7.10728e-06
-7.24464e-06
-7.3977e-06
-7.56783e-06
-7.75643e-06
-7.96499e-06
-8.19505e-06
-8.44821e-06
-8.7261e-06
-9.03044e-06
-9.36296e-06
-9.72545e-06
-1.01197e-05
-1.05477e-05
-1.10113e-05
-1.15125e-05
-1.20532e-05
-1.26356e-05
-1.32618e-05
-1.3934e-05
-1.46544e-05
-1.54255e-05
-1.62498e-05
-1.71298e-05
-1.80684e-05
-1.90683e-05
-2.01324e-05
-2.12634e-05
-2.2463e-05
-2.3704e-05
-2.51012e-05
-2.65789e-05
-2.81482e-05
-2.9819e-05
-3.15999e-05
-3.34969e-05
-3.55104e-05
-3.76277e-05
-3.9808e-05
-4.1948e-05
-4.38005e-05
)
;

boundaryField
{
    fixedWall
    {
        type            calculated;
        value           uniform 0;
    }
    outlet
    {
        type            calculated;
        value           uniform -4.47586e-05;
    }
    defaultFaces
    {
        type            empty;
    }
}


// ************************************************************************* //
