/*--------------------------------*- C++ -*----------------------------------*\
| =========                 |                                                 |
| \\      /  F ield         | OpenFOAM: The Open Source CFD Toolbox           |
|  \\    /   O peration     | Version:  2406                                  |
|   \\  /    A nd           | Website:  www.openfoam.com                      |
|    \\/     M anipulation  |                                                 |
\*---------------------------------------------------------------------------*/
FoamFile
{
    version     2.0;
    format      ascii;
    arch        "LSB;label=32;scalar=64";
    class       volVectorField;
    location    "6.9";
    object      U;
}
// * * * * * * * * * * * * * * * * * * * * * * * * * * * * * * * * * * * * * //

dimensions      [0 1 -1 0 0 0 0];

internalField   nonuniform List<vector> 
1000
(
(-1.81831e-06 0 0)
(-8.3571e-06 0 0)
(-2.08947e-05 0 0)
(-3.78293e-05 0 0)
(-5.80096e-05 0 0)
(-8.07558e-05 0 0)
(-0.000105611 0 0)
(-0.000132211 0 0)
(-0.000160254 0 0)
(-0.000189494 0 0)
(-0.000219728 0 0)
(-0.000250785 0 0)
(-0.000282518 0 0)
(-0.000314805 0 0)
(-0.000347537 0 0)
(-0.00038062 0 0)
(-0.000413971 0 0)
(-0.000447518 0 0)
(-0.000481195 0 0)
(-0.000514944 0 0)
(-0.000548714 0 0)
(-0.000582457 0 0)
(-0.000616129 0 0)
(-0.000649693 0 0)
(-0.000683114 0 0)
(-0.000716358 0 0)
(-0.000749397 0 0)
(-0.000782204 0 0)
(-0.000814753 0 0)
(-0.000847024 0 0)
(-0.000878994 0 0)
(-0.000910644 0 0)
(-0.000941959 0 0)
(-0.00097292 0 0)
(-0.00100351 0 0)
(-0.00103373 0 0)
(-0.00106355 0 0)
(-0.00109296 0 0)
(-0.00112197 0 0)
(-0.00115054 0 0)
(-0.00117869 0 0)
(-0.0012064 0 0)
(-0.00123367 0 0)
(-0.00126048 0 0)
(-0.00128684 0 0)
(-0.00131274 0 0)
(-0.00133818 0 0)
(-0.00136315 0 0)
(-0.00138765 0 0)
(-0.00141168 0 0)
(-0.00143524 0 0)
(-0.00145833 0 0)
(-0.00148095 0 0)
(-0.00150309 0 0)
(-0.00152477 0 0)
(-0.00154597 0 0)
(-0.00156671 0 0)
(-0.00158698 0 0)
(-0.00160678 0 0)
(-0.00162613 0 0)
(-0.00164502 0 0)
(-0.00166345 0 0)
(-0.00168144 0 0)
(-0.00169898 0 0)
(-0.00171607 0 0)
(-0.00173273 0 0)
(-0.00174895 0 0)
(-0.00176475 0 0)
(-0.00178012 0 0)
(-0.00179508 0 0)
(-0.00180962 0 0)
(-0.00182376 0 0)
(-0.0018375 0 0)
(-0.00185085 0 0)
(-0.0018638 0 0)
(-0.00187638 0 0)
(-0.00188858 0 0)
(-0.00190041 0 0)
(-0.00191188 0 0)
(-0.00192299 0 0)
(-0.00193376 0 0)
(-0.00194418 0 0)
(-0.00195427 0 0)
(-0.00196403 0 0)
(-0.00197347 0 0)
(-0.0019826 0 0)
(-0.00199141 0 0)
(-0.00199993 0 0)
(-0.00200816 0 0)
(-0.0020161 0 0)
(-0.00202375 0 0)
(-0.00203114 0 0)
(-0.00203826 0 0)
(-0.00204512 0 0)
(-0.00205173 0 0)
(-0.0020581 0 0)
(-0.00206422 0 0)
(-0.00207011 0 0)
(-0.00207578 0 0)
(-0.00208123 0 0)
(-0.00208646 0 0)
(-0.00209149 0 0)
(-0.00209632 0 0)
(-0.00210095 0 0)
(-0.0021054 0 0)
(-0.00210966 0 0)
(-0.00211375 0 0)
(-0.00211766 0 0)
(-0.00212141 0 0)
(-0.002125 0 0)
(-0.00212844 0 0)
(-0.00213172 0 0)
(-0.00213487 0 0)
(-0.00213787 0 0)
(-0.00214074 0 0)
(-0.00214348 0 0)
(-0.0021461 0 0)
(-0.0021486 0 0)
(-0.00215098 0 0)
(-0.00215324 0 0)
(-0.0021554 0 0)
(-0.00215745 0 0)
(-0.00215941 0 0)
(-0.00216127 0 0)
(-0.00216305 0 0)
(-0.00216474 0 0)
(-0.00216635 0 0)
(-0.00216788 0 0)
(-0.00216933 0 0)
(-0.00217071 0 0)
(-0.00217202 0 0)
(-0.00217326 0 0)
(-0.00217443 0 0)
(-0.00217555 0 0)
(-0.0021766 0 0)
(-0.0021776 0 0)
(-0.00217855 0 0)
(-0.00217945 0 0)
(-0.00218029 0 0)
(-0.00218109 0 0)
(-0.00218185 0 0)
(-0.00218257 0 0)
(-0.00218324 0 0)
(-0.00218388 0 0)
(-0.00218448 0 0)
(-0.00218505 0 0)
(-0.00218558 0 0)
(-0.00218609 0 0)
(-0.00218656 0 0)
(-0.00218701 0 0)
(-0.00218743 0 0)
(-0.00218782 0 0)
(-0.0021882 0 0)
(-0.00218855 0 0)
(-0.00218887 0 0)
(-0.00218918 0 0)
(-0.00218947 0 0)
(-0.00218974 0 0)
(-0.00219 0 0)
(-0.00219024 0 0)
(-0.00219046 0 0)
(-0.00219067 0 0)
(-0.00219087 0 0)
(-0.00219105 0 0)
(-0.00219122 0 0)
(-0.00219138 0 0)
(-0.00219153 0 0)
(-0.00219167 0 0)
(-0.00219181 0 0)
(-0.00219193 0 0)
(-0.00219204 0 0)
(-0.00219215 0 0)
(-0.00219225 0 0)
(-0.00219234 0 0)
(-0.00219243 0 0)
(-0.00219251 0 0)
(-0.00219258 0 0)
(-0.00219265 0 0)
(-0.00219272 0 0)
(-0.00219278 0 0)
(-0.00219284 0 0)
(-0.00219289 0 0)
(-0.00219294 0 0)
(-0.00219298 0 0)
(-0.00219303 0 0)
(-0.00219306 0 0)
(-0.0021931 0 0)
(-0.00219313 0 0)
(-0.00219316 0 0)
(-0.00219319 0 0)
(-0.00219322 0 0)
(-0.00219324 0 0)
(-0.00219327 0 0)
(-0.00219329 0 0)
(-0.00219331 0 0)
(-0.00219333 0 0)
(-0.00219334 0 0)
(-0.00219336 0 0)
(-0.00219337 0 0)
(-0.00219338 0 0)
(-0.0021934 0 0)
(-0.00219341 0 0)
(-0.00219342 0 0)
(-0.00219343 0 0)
(-0.00219343 0 0)
(-0.00219344 0 0)
(-0.00219345 0 0)
(-0.00219346 0 0)
(-0.00219346 0 0)
(-0.00219347 0 0)
(-0.00219347 0 0)
(-0.00219347 0 0)
(-0.00219348 0 0)
(-0.00219348 0 0)
(-0.00219348 0 0)
(-0.00219349 0 0)
(-0.00219349 0 0)
(-0.00219349 0 0)
(-0.00219349 0 0)
(-0.00219349 0 0)
(-0.0021935 0 0)
(-0.0021935 0 0)
(-0.00219349 0 0)
(-0.0021935 0 0)
(-0.00219349 0 0)
(-0.0021935 0 0)
(-0.0021935 0 0)
(-0.00219349 0 0)
(-0.0021935 0 0)
(-0.00219349 0 0)
(-0.00219349 0 0)
(-0.00219349 0 0)
(-0.00219349 0 0)
(-0.00219349 0 0)
(-0.00219348 0 0)
(-0.00219348 0 0)
(-0.00219348 0 0)
(-0.00219348 0 0)
(-0.00219348 0 0)
(-0.00219347 0 0)
(-0.00219347 0 0)
(-0.00219347 0 0)
(-0.00219346 0 0)
(-0.00219347 0 0)
(-0.00219346 0 0)
(-0.00219346 0 0)
(-0.00219346 0 0)
(-0.00219345 0 0)
(-0.00219345 0 0)
(-0.00219344 0 0)
(-0.00219344 0 0)
(-0.00219344 0 0)
(-0.00219343 0 0)
(-0.00219343 0 0)
(-0.00219342 0 0)
(-0.00219342 0 0)
(-0.00219342 0 0)
(-0.00219341 0 0)
(-0.00219341 0 0)
(-0.0021934 0 0)
(-0.0021934 0 0)
(-0.0021934 0 0)
(-0.00219339 0 0)
(-0.00219339 0 0)
(-0.00219338 0 0)
(-0.00219338 0 0)
(-0.00219337 0 0)
(-0.00219337 0 0)
(-0.00219336 0 0)
(-0.00219336 0 0)
(-0.00219335 0 0)
(-0.00219335 0 0)
(-0.00219335 0 0)
(-0.00219334 0 0)
(-0.00219334 0 0)
(-0.00219333 0 0)
(-0.00219333 0 0)
(-0.00219332 0 0)
(-0.00219332 0 0)
(-0.00219331 0 0)
(-0.00219331 0 0)
(-0.0021933 0 0)
(-0.0021933 0 0)
(-0.00219329 0 0)
(-0.00219329 0 0)
(-0.00219328 0 0)
(-0.00219328 0 0)
(-0.00219327 0 0)
(-0.00219327 0 0)
(-0.00219326 0 0)
(-0.00219326 0 0)
(-0.00219326 0 0)
(-0.00219325 0 0)
(-0.00219325 0 0)
(-0.00219324 0 0)
(-0.00219324 0 0)
(-0.00219323 0 0)
(-0.00219323 0 0)
(-0.00219322 0 0)
(-0.00219322 0 0)
(-0.00219322 0 0)
(-0.00219321 0 0)
(-0.00219321 0 0)
(-0.0021932 0 0)
(-0.0021932 0 0)
(-0.00219319 0 0)
(-0.00219319 0 0)
(-0.00219319 0 0)
(-0.00219318 0 0)
(-0.00219318 0 0)
(-0.00219317 0 0)
(-0.00219317 0 0)
(-0.00219317 0 0)
(-0.00219316 0 0)
(-0.00219316 0 0)
(-0.00219316 0 0)
(-0.00219315 0 0)
(-0.00219315 0 0)
(-0.00219315 0 0)
(-0.00219314 0 0)
(-0.00219314 0 0)
(-0.00219313 0 0)
(-0.00219313 0 0)
(-0.00219313 0 0)
(-0.00219312 0 0)
(-0.00219313 0 0)
(-0.00219312 0 0)
(-0.00219311 0 0)
(-0.00219312 0 0)
(-0.00219311 0 0)
(-0.00219311 0 0)
(-0.00219311 0 0)
(-0.0021931 0 0)
(-0.0021931 0 0)
(-0.0021931 0 0)
(-0.0021931 0 0)
(-0.0021931 0 0)
(-0.0021931 0 0)
(-0.00219309 0 0)
(-0.00219309 0 0)
(-0.00219309 0 0)
(-0.00219309 0 0)
(-0.00219309 0 0)
(-0.00219309 0 0)
(-0.00219309 0 0)
(-0.00219308 0 0)
(-0.00219308 0 0)
(-0.00219308 0 0)
(-0.00219308 0 0)
(-0.00219308 0 0)
(-0.00219309 0 0)
(-0.00219308 0 0)
(-0.00219308 0 0)
(-0.00219308 0 0)
(-0.00219308 0 0)
(-0.00219308 0 0)
(-0.00219308 0 0)
(-0.00219308 0 0)
(-0.00219308 0 0)
(-0.00219308 0 0)
(-0.00219308 0 0)
(-0.00219308 0 0)
(-0.00219309 0 0)
(-0.00219308 0 0)
(-0.00219309 0 0)
(-0.00219309 0 0)
(-0.00219309 0 0)
(-0.00219309 0 0)
(-0.00219309 0 0)
(-0.00219309 0 0)
(-0.0021931 0 0)
(-0.00219309 0 0)
(-0.0021931 0 0)
(-0.0021931 0 0)
(-0.0021931 0 0)
(-0.00219311 0 0)
(-0.00219311 0 0)
(-0.00219311 0 0)
(-0.00219311 0 0)
(-0.00219311 0 0)
(-0.00219312 0 0)
(-0.00219312 0 0)
(-0.00219312 0 0)
(-0.00219312 0 0)
(-0.00219312 0 0)
(-0.00219313 0 0)
(-0.00219313 0 0)
(-0.00219313 0 0)
(-0.00219313 0 0)
(-0.00219314 0 0)
(-0.00219314 0 0)
(-0.00219314 0 0)
(-0.00219314 0 0)
(-0.00219315 0 0)
(-0.00219315 0 0)
(-0.00219315 0 0)
(-0.00219315 0 0)
(-0.00219316 0 0)
(-0.00219316 0 0)
(-0.00219316 0 0)
(-0.00219316 0 0)
(-0.00219316 0 0)
(-0.00219317 0 0)
(-0.00219317 0 0)
(-0.00219317 0 0)
(-0.00219317 0 0)
(-0.00219317 0 0)
(-0.00219317 0 0)
(-0.00219317 0 0)
(-0.00219317 0 0)
(-0.00219318 0 0)
(-0.00219317 0 0)
(-0.00219318 0 0)
(-0.00219318 0 0)
(-0.00219318 0 0)
(-0.00219318 0 0)
(-0.00219318 0 0)
(-0.00219318 0 0)
(-0.00219318 0 0)
(-0.00219318 0 0)
(-0.00219318 0 0)
(-0.00219317 0 0)
(-0.00219318 0 0)
(-0.00219317 0 0)
(-0.00219318 0 0)
(-0.00219317 0 0)
(-0.00219317 0 0)
(-0.00219317 0 0)
(-0.00219317 0 0)
(-0.00219317 0 0)
(-0.00219317 0 0)
(-0.00219317 0 0)
(-0.00219317 0 0)
(-0.00219316 0 0)
(-0.00219317 0 0)
(-0.00219316 0 0)
(-0.00219316 0 0)
(-0.00219316 0 0)
(-0.00219315 0 0)
(-0.00219316 0 0)
(-0.00219315 0 0)
(-0.00219315 0 0)
(-0.00219315 0 0)
(-0.00219314 0 0)
(-0.00219314 0 0)
(-0.00219314 0 0)
(-0.00219314 0 0)
(-0.00219314 0 0)
(-0.00219313 0 0)
(-0.00219314 0 0)
(-0.00219313 0 0)
(-0.00219313 0 0)
(-0.00219314 0 0)
(-0.00219312 0 0)
(-0.00219313 0 0)
(-0.00219312 0 0)
(-0.00219312 0 0)
(-0.00219312 0 0)
(-0.00219312 0 0)
(-0.00219312 0 0)
(-0.00219312 0 0)
(-0.00219311 0 0)
(-0.00219311 0 0)
(-0.00219311 0 0)
(-0.00219311 0 0)
(-0.00219311 0 0)
(-0.0021931 0 0)
(-0.00219311 0 0)
(-0.00219311 0 0)
(-0.0021931 0 0)
(-0.00219311 0 0)
(-0.0021931 0 0)
(-0.00219311 0 0)
(-0.0021931 0 0)
(-0.0021931 0 0)
(-0.0021931 0 0)
(-0.0021931 0 0)
(-0.0021931 0 0)
(-0.00219309 0 0)
(-0.0021931 0 0)
(-0.00219309 0 0)
(-0.0021931 0 0)
(-0.0021931 0 0)
(-0.00219309 0 0)
(-0.0021931 0 0)
(-0.00219309 0 0)
(-0.0021931 0 0)
(-0.00219309 0 0)
(-0.0021931 0 0)
(-0.00219309 0 0)
(-0.00219309 0 0)
(-0.0021931 0 0)
(-0.00219309 0 0)
(-0.0021931 0 0)
(-0.00219309 0 0)
(-0.00219309 0 0)
(-0.0021931 0 0)
(-0.00219309 0 0)
(-0.00219309 0 0)
(-0.00219309 0 0)
(-0.0021931 0 0)
(-0.00219309 0 0)
(-0.0021931 0 0)
(-0.00219309 0 0)
(-0.00219309 0 0)
(-0.0021931 0 0)
(-0.00219309 0 0)
(-0.0021931 0 0)
(-0.0021931 0 0)
(-0.0021931 0 0)
(-0.0021931 0 0)
(-0.0021931 0 0)
(-0.0021931 0 0)
(-0.0021931 0 0)
(-0.0021931 0 0)
(-0.0021931 0 0)
(-0.0021931 0 0)
(-0.0021931 0 0)
(-0.0021931 0 0)
(-0.0021931 0 0)
(-0.0021931 0 0)
(-0.0021931 0 0)
(-0.0021931 0 0)
(-0.0021931 0 0)
(-0.0021931 0 0)
(-0.0021931 0 0)
(-0.0021931 0 0)
(-0.0021931 0 0)
(-0.00219311 0 0)
(-0.0021931 0 0)
(-0.0021931 0 0)
(-0.0021931 0 0)
(-0.0021931 0 0)
(-0.0021931 0 0)
(-0.0021931 0 0)
(-0.0021931 0 0)
(-0.0021931 0 0)
(-0.0021931 0 0)
(-0.0021931 0 0)
(-0.0021931 0 0)
(-0.0021931 0 0)
(-0.00219309 0 0)
(-0.0021931 0 0)
(-0.0021931 0 0)
(-0.00219309 0 0)
(-0.0021931 0 0)
(-0.00219309 0 0)
(-0.00219309 0 0)
(-0.00219309 0 0)
(-0.00219309 0 0)
(-0.00219309 0 0)
(-0.00219308 0 0)
(-0.00219309 0 0)
(-0.00219309 0 0)
(-0.00219308 0 0)
(-0.00219309 0 0)
(-0.00219308 0 0)
(-0.00219308 0 0)
(-0.00219307 0 0)
(-0.00219307 0 0)
(-0.00219307 0 0)
(-0.00219307 0 0)
(-0.00219307 0 0)
(-0.00219306 0 0)
(-0.00219306 0 0)
(-0.00219306 0 0)
(-0.00219306 0 0)
(-0.00219305 0 0)
(-0.00219305 0 0)
(-0.00219305 0 0)
(-0.00219304 0 0)
(-0.00219304 0 0)
(-0.00219304 0 0)
(-0.00219303 0 0)
(-0.00219303 0 0)
(-0.00219303 0 0)
(-0.00219302 0 0)
(-0.00219302 0 0)
(-0.00219302 0 0)
(-0.00219301 0 0)
(-0.00219301 0 0)
(-0.00219301 0 0)
(-0.002193 0 0)
(-0.00219301 0 0)
(-0.002193 0 0)
(-0.002193 0 0)
(-0.002193 0 0)
(-0.00219299 0 0)
(-0.00219299 0 0)
(-0.00219299 0 0)
(-0.00219299 0 0)
(-0.00219298 0 0)
(-0.00219298 0 0)
(-0.00219298 0 0)
(-0.00219298 0 0)
(-0.00219298 0 0)
(-0.00219297 0 0)
(-0.00219298 0 0)
(-0.00219297 0 0)
(-0.00219297 0 0)
(-0.00219297 0 0)
(-0.00219297 0 0)
(-0.00219297 0 0)
(-0.00219297 0 0)
(-0.00219297 0 0)
(-0.00219297 0 0)
(-0.00219297 0 0)
(-0.00219297 0 0)
(-0.00219297 0 0)
(-0.00219297 0 0)
(-0.00219297 0 0)
(-0.00219297 0 0)
(-0.00219297 0 0)
(-0.00219297 0 0)
(-0.00219297 0 0)
(-0.00219297 0 0)
(-0.00219297 0 0)
(-0.00219298 0 0)
(-0.00219298 0 0)
(-0.00219298 0 0)
(-0.00219298 0 0)
(-0.00219298 0 0)
(-0.00219298 0 0)
(-0.00219298 0 0)
(-0.00219298 0 0)
(-0.00219298 0 0)
(-0.00219299 0 0)
(-0.00219299 0 0)
(-0.00219299 0 0)
(-0.00219299 0 0)
(-0.00219299 0 0)
(-0.00219299 0 0)
(-0.00219299 0 0)
(-0.00219299 0 0)
(-0.00219299 0 0)
(-0.00219299 0 0)
(-0.00219299 0 0)
(-0.00219299 0 0)
(-0.00219299 0 0)
(-0.00219299 0 0)
(-0.00219299 0 0)
(-0.002193 0 0)
(-0.00219299 0 0)
(-0.00219299 0 0)
(-0.002193 0 0)
(-0.00219299 0 0)
(-0.00219299 0 0)
(-0.00219299 0 0)
(-0.00219299 0 0)
(-0.00219299 0 0)
(-0.00219299 0 0)
(-0.00219299 0 0)
(-0.00219299 0 0)
(-0.00219299 0 0)
(-0.00219299 0 0)
(-0.00219299 0 0)
(-0.00219299 0 0)
(-0.00219299 0 0)
(-0.00219299 0 0)
(-0.00219299 0 0)
(-0.00219299 0 0)
(-0.00219299 0 0)
(-0.00219299 0 0)
(-0.00219299 0 0)
(-0.00219299 0 0)
(-0.00219299 0 0)
(-0.00219299 0 0)
(-0.00219299 0 0)
(-0.00219299 0 0)
(-0.00219299 0 0)
(-0.00219299 0 0)
(-0.00219299 0 0)
(-0.00219299 0 0)
(-0.00219299 0 0)
(-0.00219299 0 0)
(-0.00219298 0 0)
(-0.00219299 0 0)
(-0.00219298 0 0)
(-0.00219299 0 0)
(-0.00219298 0 0)
(-0.00219299 0 0)
(-0.00219298 0 0)
(-0.00219298 0 0)
(-0.00219298 0 0)
(-0.00219298 0 0)
(-0.00219298 0 0)
(-0.00219297 0 0)
(-0.00219297 0 0)
(-0.00219297 0 0)
(-0.00219297 0 0)
(-0.00219297 0 0)
(-0.00219296 0 0)
(-0.00219296 0 0)
(-0.00219296 0 0)
(-0.00219295 0 0)
(-0.00219295 0 0)
(-0.00219294 0 0)
(-0.00219294 0 0)
(-0.00219293 0 0)
(-0.00219293 0 0)
(-0.00219292 0 0)
(-0.00219292 0 0)
(-0.00219291 0 0)
(-0.0021929 0 0)
(-0.0021929 0 0)
(-0.00219289 0 0)
(-0.00219288 0 0)
(-0.00219288 0 0)
(-0.00219287 0 0)
(-0.00219286 0 0)
(-0.00219285 0 0)
(-0.00219284 0 0)
(-0.00219283 0 0)
(-0.00219282 0 0)
(-0.00219282 0 0)
(-0.00219281 0 0)
(-0.0021928 0 0)
(-0.00219279 0 0)
(-0.00219278 0 0)
(-0.00219277 0 0)
(-0.00219276 0 0)
(-0.00219275 0 0)
(-0.00219274 0 0)
(-0.00219274 0 0)
(-0.00219273 0 0)
(-0.00219272 0 0)
(-0.00219271 0 0)
(-0.00219271 0 0)
(-0.0021927 0 0)
(-0.00219269 0 0)
(-0.00219269 0 0)
(-0.00219268 0 0)
(-0.00219267 0 0)
(-0.00219267 0 0)
(-0.00219267 0 0)
(-0.00219266 0 0)
(-0.00219266 0 0)
(-0.00219265 0 0)
(-0.00219265 0 0)
(-0.00219265 0 0)
(-0.00219264 0 0)
(-0.00219265 0 0)
(-0.00219265 0 0)
(-0.00219264 0 0)
(-0.00219265 0 0)
(-0.00219265 0 0)
(-0.00219265 0 0)
(-0.00219265 0 0)
(-0.00219266 0 0)
(-0.00219266 0 0)
(-0.00219267 0 0)
(-0.00219267 0 0)
(-0.00219268 0 0)
(-0.00219268 0 0)
(-0.00219269 0 0)
(-0.00219269 0 0)
(-0.0021927 0 0)
(-0.00219271 0 0)
(-0.00219272 0 0)
(-0.00219272 0 0)
(-0.00219273 0 0)
(-0.00219274 0 0)
(-0.00219275 0 0)
(-0.00219276 0 0)
(-0.00219277 0 0)
(-0.00219278 0 0)
(-0.00219278 0 0)
(-0.00219279 0 0)
(-0.0021928 0 0)
(-0.00219281 0 0)
(-0.00219282 0 0)
(-0.00219283 0 0)
(-0.00219284 0 0)
(-0.00219284 0 0)
(-0.00219285 0 0)
(-0.00219286 0 0)
(-0.00219287 0 0)
(-0.00219288 0 0)
(-0.00219288 0 0)
(-0.00219289 0 0)
(-0.00219289 0 0)
(-0.0021929 0 0)
(-0.00219291 0 0)
(-0.00219291 0 0)
(-0.00219291 0 0)
(-0.00219291 0 0)
(-0.00219292 0 0)
(-0.00219292 0 0)
(-0.00219292 0 0)
(-0.00219292 0 0)
(-0.00219292 0 0)
(-0.00219292 0 0)
(-0.00219292 0 0)
(-0.00219292 0 0)
(-0.00219291 0 0)
(-0.00219291 0 0)
(-0.00219291 0 0)
(-0.0021929 0 0)
(-0.00219289 0 0)
(-0.00219289 0 0)
(-0.00219288 0 0)
(-0.00219287 0 0)
(-0.00219286 0 0)
(-0.00219286 0 0)
(-0.00219285 0 0)
(-0.00219284 0 0)
(-0.00219283 0 0)
(-0.00219281 0 0)
(-0.0021928 0 0)
(-0.00219279 0 0)
(-0.00219278 0 0)
(-0.00219277 0 0)
(-0.00219275 0 0)
(-0.00219274 0 0)
(-0.00219272 0 0)
(-0.00219271 0 0)
(-0.0021927 0 0)
(-0.00219268 0 0)
(-0.00219267 0 0)
(-0.00219265 0 0)
(-0.00219264 0 0)
(-0.00219263 0 0)
(-0.00219261 0 0)
(-0.0021926 0 0)
(-0.00219258 0 0)
(-0.00219257 0 0)
(-0.00219256 0 0)
(-0.00219255 0 0)
(-0.00219253 0 0)
(-0.00219252 0 0)
(-0.00219251 0 0)
(-0.0021925 0 0)
(-0.00219249 0 0)
(-0.00219248 0 0)
(-0.00219247 0 0)
(-0.00219246 0 0)
(-0.00219245 0 0)
(-0.00219245 0 0)
(-0.00219244 0 0)
(-0.00219243 0 0)
(-0.00219243 0 0)
(-0.00219242 0 0)
(-0.00219242 0 0)
(-0.00219242 0 0)
(-0.00219241 0 0)
(-0.00219241 0 0)
(-0.00219241 0 0)
(-0.00219241 0 0)
(-0.00219241 0 0)
(-0.00219241 0 0)
(-0.00219241 0 0)
(-0.00219241 0 0)
(-0.00219241 0 0)
(-0.00219241 0 0)
(-0.00219241 0 0)
(-0.00219242 0 0)
(-0.00219242 0 0)
(-0.00219242 0 0)
(-0.00219243 0 0)
(-0.00219243 0 0)
(-0.00219243 0 0)
(-0.00219243 0 0)
(-0.00219244 0 0)
(-0.00219244 0 0)
(-0.00219244 0 0)
(-0.00219244 0 0)
(-0.00219245 0 0)
(-0.00219245 0 0)
(-0.00219245 0 0)
(-0.00219245 0 0)
(-0.00219245 0 0)
(-0.00219245 0 0)
(-0.00219245 0 0)
(-0.00219245 0 0)
(-0.00219245 0 0)
(-0.00219245 0 0)
(-0.00219245 0 0)
(-0.00219245 0 0)
(-0.00219244 0 0)
(-0.00219244 0 0)
(-0.00219244 0 0)
(-0.00219244 0 0)
(-0.00219243 0 0)
(-0.00219243 0 0)
(-0.00219242 0 0)
(-0.00219242 0 0)
(-0.00219241 0 0)
(-0.00219241 0 0)
(-0.0021924 0 0)
(-0.00219239 0 0)
(-0.00219239 0 0)
(-0.00219238 0 0)
(-0.00219237 0 0)
(-0.00219236 0 0)
(-0.00219236 0 0)
(-0.00219235 0 0)
(-0.00219234 0 0)
(-0.00219233 0 0)
(-0.00219232 0 0)
(-0.00219232 0 0)
(-0.00219231 0 0)
(-0.0021923 0 0)
(-0.00219229 0 0)
(-0.00219228 0 0)
(-0.00219227 0 0)
(-0.00219227 0 0)
(-0.00219226 0 0)
(-0.00219225 0 0)
(-0.00219225 0 0)
(-0.00219225 0 0)
(-0.00219225 0 0)
(-0.00219225 0 0)
(-0.00219226 0 0)
(-0.00219227 0 0)
(-0.00219229 0 0)
(-0.00219231 0 0)
(-0.00219234 0 0)
(-0.00219238 0 0)
(-0.00219244 0 0)
(-0.00219251 0 0)
(-0.00219259 0 0)
(-0.0021927 0 0)
(-0.00219284 0 0)
(-0.002193 0 0)
(-0.0021932 0 0)
(-0.00219344 0 0)
(-0.00219374 0 0)
(-0.0021941 0 0)
(-0.00219453 0 0)
(-0.00219505 0 0)
(-0.00219567 0 0)
(-0.00219642 0 0)
(-0.00219731 0 0)
(-0.00219837 0 0)
(-0.00219963 0 0)
(-0.00220112 0 0)
(-0.00220288 0 0)
(-0.00220496 0 0)
(-0.00220741 0 0)
(-0.00221029 0 0)
(-0.00221366 0 0)
(-0.00221761 0 0)
(-0.0022222 0 0)
(-0.00222755 0 0)
(-0.00223376 0 0)
(-0.00224095 0 0)
(-0.00224926 0 0)
(-0.00225883 0 0)
(-0.00226982 0 0)
(-0.00228241 0 0)
(-0.00229681 0 0)
(-0.00231321 0 0)
(-0.00233186 0 0)
(-0.00235299 0 0)
(-0.00237688 0 0)
(-0.00240379 0 0)
(-0.00243403 0 0)
(-0.00246791 0 0)
(-0.00250574 0 0)
(-0.00254786 0 0)
(-0.0025946 0 0)
(-0.00264632 0 0)
(-0.00270335 0 0)
(-0.00276602 0 0)
(-0.00283468 0 0)
(-0.00290963 0 0)
(-0.00299116 0 0)
(-0.00307954 0 0)
(-0.00317498 0 0)
(-0.00327767 0 0)
(-0.00338773 0 0)
(-0.00350521 0 0)
(-0.00363009 0 0)
(-0.00376227 0 0)
(-0.00390154 0 0)
(-0.00404758 0 0)
(-0.00419994 0 0)
(-0.00435803 0 0)
(-0.00452112 0 0)
(-0.00468829 0 0)
(-0.00485843 0 0)
(-0.00503022 0 0)
(-0.00520206 0 0)
(-0.00537213 0 0)
(-0.00553819 0 0)
(-0.00569816 0 0)
(-0.00584794 0 0)
(-0.00598262 0 0)
(-0.00610567 0 0)
(-0.00621473 0 0)
(-0.00629833 0 0)
(-0.00634747 0 0)
(-0.0063578 0 0)
(-0.0063207 0 0)
(-0.0062256 0 0)
(-0.00606374 0 0)
(-0.00581887 0 0)
(-0.00544338 0 0)
(-0.00484056 0 0)
(-0.0041233 0 0)
)
;

boundaryField
{
    fixedWall
    {
        type            fixedValue;
        value           uniform (0 0 0);
    }
    outlet
    {
        type            pressureInletOutletVelocity;
        value           uniform (-0.0041233 0 0);
    }
    defaultFaces
    {
        type            empty;
    }
}


// ************************************************************************* //
