/*--------------------------------*- C++ -*----------------------------------*\
| =========                 |                                                 |
| \\      /  F ield         | OpenFOAM: The Open Source CFD Toolbox           |
|  \\    /   O peration     | Version:  2406                                  |
|   \\  /    A nd           | Website:  www.openfoam.com                      |
|    \\/     M anipulation  |                                                 |
\*---------------------------------------------------------------------------*/
FoamFile
{
    version     2.0;
    format      ascii;
    arch        "LSB;label=32;scalar=64";
    class       volScalarField;
    location    "11.5";
    object      O2;
}
// * * * * * * * * * * * * * * * * * * * * * * * * * * * * * * * * * * * * * //

dimensions      [0 0 0 0 0 0 0];

internalField   nonuniform List<scalar> 
1000
(
1.09341e-06
1.09172e-06
1.08863e-06
1.08435e-06
1.07907e-06
1.07289e-06
1.06594e-06
1.05829e-06
1.05003e-06
1.0412e-06
1.03187e-06
1.02209e-06
1.0119e-06
1.00133e-06
9.90427e-07
9.79215e-07
9.67724e-07
9.55981e-07
9.44011e-07
9.31837e-07
9.19481e-07
9.06962e-07
8.94299e-07
8.81511e-07
8.68615e-07
8.55627e-07
8.42562e-07
8.29436e-07
8.16264e-07
8.0306e-07
7.89837e-07
7.76608e-07
7.63386e-07
7.50185e-07
7.37016e-07
7.23891e-07
7.10822e-07
6.97819e-07
6.84895e-07
6.7206e-07
6.59323e-07
6.46695e-07
6.34186e-07
6.21805e-07
6.0956e-07
5.9746e-07
5.85513e-07
5.73727e-07
5.62108e-07
5.50662e-07
5.39397e-07
5.28318e-07
5.17429e-07
5.06736e-07
4.96243e-07
4.85952e-07
4.75868e-07
4.65994e-07
4.5633e-07
4.4688e-07
4.37644e-07
4.28623e-07
4.19818e-07
4.11229e-07
4.02855e-07
3.94697e-07
3.86752e-07
3.7902e-07
3.715e-07
3.64188e-07
3.57084e-07
3.50184e-07
3.43487e-07
3.36989e-07
3.30687e-07
3.24579e-07
3.1866e-07
3.12928e-07
3.0738e-07
3.02011e-07
2.96818e-07
2.91797e-07
2.86944e-07
2.82256e-07
2.77728e-07
2.73357e-07
2.69139e-07
2.6507e-07
2.61146e-07
2.57364e-07
2.53718e-07
2.50206e-07
2.46824e-07
2.43568e-07
2.40434e-07
2.37419e-07
2.3452e-07
2.31731e-07
2.29051e-07
2.26476e-07
2.24002e-07
2.21626e-07
2.19345e-07
2.17156e-07
2.15056e-07
2.13042e-07
2.11111e-07
2.09259e-07
2.07485e-07
2.05786e-07
2.04158e-07
2.026e-07
2.01109e-07
1.99683e-07
1.98319e-07
1.97014e-07
1.95768e-07
1.94577e-07
1.9344e-07
1.92354e-07
1.91318e-07
1.9033e-07
1.89388e-07
1.8849e-07
1.87634e-07
1.8682e-07
1.86044e-07
1.85306e-07
1.84605e-07
1.83938e-07
1.83305e-07
1.82704e-07
1.82134e-07
1.81593e-07
1.81081e-07
1.80596e-07
1.80137e-07
1.79703e-07
1.79293e-07
1.78907e-07
1.78542e-07
1.78199e-07
1.77875e-07
1.77572e-07
1.77287e-07
1.7702e-07
1.7677e-07
1.76536e-07
1.76318e-07
1.76115e-07
1.75926e-07
1.75751e-07
1.7559e-07
1.75441e-07
1.75304e-07
1.75178e-07
1.75063e-07
1.74959e-07
1.74865e-07
1.74781e-07
1.74706e-07
1.7464e-07
1.74582e-07
1.74532e-07
1.7449e-07
1.74455e-07
1.74427e-07
1.74406e-07
1.74391e-07
1.74382e-07
1.74379e-07
1.74381e-07
1.74389e-07
1.74402e-07
1.7442e-07
1.74442e-07
1.74468e-07
1.74499e-07
1.74534e-07
1.74573e-07
1.74615e-07
1.74661e-07
1.7471e-07
1.74762e-07
1.74817e-07
1.74875e-07
1.74936e-07
1.74999e-07
1.75065e-07
1.75133e-07
1.75203e-07
1.75276e-07
1.7535e-07
1.75426e-07
1.75505e-07
1.75585e-07
1.75666e-07
1.7575e-07
1.75835e-07
1.75921e-07
1.76009e-07
1.76098e-07
1.76188e-07
1.76279e-07
1.76372e-07
1.76466e-07
1.7656e-07
1.76656e-07
1.76753e-07
1.7685e-07
1.76948e-07
1.77048e-07
1.77147e-07
1.77248e-07
1.7735e-07
1.77452e-07
1.77554e-07
1.77658e-07
1.77761e-07
1.77866e-07
1.77971e-07
1.78076e-07
1.78182e-07
1.78289e-07
1.78396e-07
1.78503e-07
1.78611e-07
1.78719e-07
1.78827e-07
1.78936e-07
1.79045e-07
1.79155e-07
1.79265e-07
1.79375e-07
1.79485e-07
1.79596e-07
1.79707e-07
1.79818e-07
1.79929e-07
1.80041e-07
1.80153e-07
1.80265e-07
1.80378e-07
1.8049e-07
1.80603e-07
1.80716e-07
1.8083e-07
1.80943e-07
1.81057e-07
1.8117e-07
1.81284e-07
1.81399e-07
1.81513e-07
1.81627e-07
1.81742e-07
1.81857e-07
1.81972e-07
1.82087e-07
1.82202e-07
1.82317e-07
1.82433e-07
1.82549e-07
1.82664e-07
1.8278e-07
1.82896e-07
1.83012e-07
1.83128e-07
1.83245e-07
1.83362e-07
1.83478e-07
1.83595e-07
1.83712e-07
1.83829e-07
1.83947e-07
1.84064e-07
1.84181e-07
1.84299e-07
1.84417e-07
1.84535e-07
1.84653e-07
1.84771e-07
1.84889e-07
1.85007e-07
1.85126e-07
1.85244e-07
1.85363e-07
1.85482e-07
1.856e-07
1.8572e-07
1.85839e-07
1.85958e-07
1.86077e-07
1.86197e-07
1.86316e-07
1.86436e-07
1.86556e-07
1.86676e-07
1.86796e-07
1.86916e-07
1.87036e-07
1.87156e-07
1.87277e-07
1.87398e-07
1.87518e-07
1.87639e-07
1.8776e-07
1.87882e-07
1.88003e-07
1.88125e-07
1.88246e-07
1.88368e-07
1.8849e-07
1.88612e-07
1.88734e-07
1.88856e-07
1.88979e-07
1.89101e-07
1.89224e-07
1.89347e-07
1.8947e-07
1.89593e-07
1.89716e-07
1.89839e-07
1.89963e-07
1.90086e-07
1.9021e-07
1.90334e-07
1.90458e-07
1.90582e-07
1.90707e-07
1.90831e-07
1.90956e-07
1.91081e-07
1.91206e-07
1.91331e-07
1.91456e-07
1.91582e-07
1.91707e-07
1.91833e-07
1.91959e-07
1.92085e-07
1.92211e-07
1.92337e-07
1.92464e-07
1.9259e-07
1.92717e-07
1.92844e-07
1.92971e-07
1.93099e-07
1.93226e-07
1.93354e-07
1.93482e-07
1.9361e-07
1.93738e-07
1.93866e-07
1.93995e-07
1.94123e-07
1.94252e-07
1.94381e-07
1.9451e-07
1.9464e-07
1.94769e-07
1.94899e-07
1.95029e-07
1.95159e-07
1.95289e-07
1.9542e-07
1.9555e-07
1.95681e-07
1.95812e-07
1.95943e-07
1.96074e-07
1.96206e-07
1.96338e-07
1.9647e-07
1.96602e-07
1.96734e-07
1.96866e-07
1.96999e-07
1.97132e-07
1.97265e-07
1.97398e-07
1.97531e-07
1.97665e-07
1.97799e-07
1.97932e-07
1.98067e-07
1.98201e-07
1.98335e-07
1.9847e-07
1.98605e-07
1.9874e-07
1.98875e-07
1.9901e-07
1.99146e-07
1.99282e-07
1.99418e-07
1.99554e-07
1.99691e-07
1.99827e-07
1.99964e-07
2.00101e-07
2.00238e-07
2.00376e-07
2.00513e-07
2.00651e-07
2.00789e-07
2.00927e-07
2.01065e-07
2.01204e-07
2.01343e-07
2.01481e-07
2.01621e-07
2.0176e-07
2.01899e-07
2.02039e-07
2.02179e-07
2.02319e-07
2.02459e-07
2.026e-07
2.02741e-07
2.02881e-07
2.03023e-07
2.03164e-07
2.03305e-07
2.03447e-07
2.03589e-07
2.03731e-07
2.03873e-07
2.04016e-07
2.04158e-07
2.04301e-07
2.04444e-07
2.04588e-07
2.04731e-07
2.04875e-07
2.05019e-07
2.05163e-07
2.05307e-07
2.05452e-07
2.05596e-07
2.05741e-07
2.05886e-07
2.06031e-07
2.06177e-07
2.06323e-07
2.06469e-07
2.06615e-07
2.06761e-07
2.06908e-07
2.07054e-07
2.07201e-07
2.07348e-07
2.07496e-07
2.07643e-07
2.07791e-07
2.07939e-07
2.08087e-07
2.08236e-07
2.08384e-07
2.08533e-07
2.08682e-07
2.08831e-07
2.08981e-07
2.09131e-07
2.0928e-07
2.09431e-07
2.09581e-07
2.09731e-07
2.09882e-07
2.10033e-07
2.10184e-07
2.10336e-07
2.10487e-07
2.10639e-07
2.10791e-07
2.10944e-07
2.11096e-07
2.11249e-07
2.11402e-07
2.11555e-07
2.11708e-07
2.11862e-07
2.12016e-07
2.1217e-07
2.12324e-07
2.12479e-07
2.12633e-07
2.12788e-07
2.12944e-07
2.13099e-07
2.13255e-07
2.13411e-07
2.13567e-07
2.13723e-07
2.1388e-07
2.14036e-07
2.14193e-07
2.14351e-07
2.14508e-07
2.14666e-07
2.14824e-07
2.14982e-07
2.15141e-07
2.15299e-07
2.15458e-07
2.15617e-07
2.15777e-07
2.15936e-07
2.16096e-07
2.16256e-07
2.16417e-07
2.16577e-07
2.16738e-07
2.16899e-07
2.1706e-07
2.17222e-07
2.17384e-07
2.17546e-07
2.17708e-07
2.1787e-07
2.18033e-07
2.18196e-07
2.18359e-07
2.18523e-07
2.18687e-07
2.18851e-07
2.19015e-07
2.19179e-07
2.19344e-07
2.19509e-07
2.19674e-07
2.1984e-07
2.20005e-07
2.20171e-07
2.20337e-07
2.20504e-07
2.20671e-07
2.20837e-07
2.21005e-07
2.21172e-07
2.2134e-07
2.21508e-07
2.21676e-07
2.21844e-07
2.22013e-07
2.22182e-07
2.22351e-07
2.22521e-07
2.2269e-07
2.2286e-07
2.23031e-07
2.23201e-07
2.23372e-07
2.23543e-07
2.23714e-07
2.23886e-07
2.24057e-07
2.24229e-07
2.24402e-07
2.24574e-07
2.24747e-07
2.2492e-07
2.25094e-07
2.25267e-07
2.25441e-07
2.25615e-07
2.2579e-07
2.25964e-07
2.26139e-07
2.26314e-07
2.2649e-07
2.26666e-07
2.26842e-07
2.27018e-07
2.27194e-07
2.27371e-07
2.27548e-07
2.27726e-07
2.27903e-07
2.28081e-07
2.28259e-07
2.28438e-07
2.28617e-07
2.28796e-07
2.28975e-07
2.29155e-07
2.29335e-07
2.29515e-07
2.29695e-07
2.29876e-07
2.30057e-07
2.30238e-07
2.3042e-07
2.30602e-07
2.30784e-07
2.30966e-07
2.31149e-07
2.31332e-07
2.31515e-07
2.31699e-07
2.31883e-07
2.32067e-07
2.32252e-07
2.32437e-07
2.32622e-07
2.32807e-07
2.32993e-07
2.33179e-07
2.33365e-07
2.33552e-07
2.33739e-07
2.33926e-07
2.34114e-07
2.34301e-07
2.3449e-07
2.34678e-07
2.34867e-07
2.35056e-07
2.35245e-07
2.35435e-07
2.35625e-07
2.35815e-07
2.36004e-07
2.36195e-07
2.36386e-07
2.36578e-07
2.3677e-07
2.36962e-07
2.37155e-07
2.37348e-07
2.37541e-07
2.37734e-07
2.37928e-07
2.38123e-07
2.38317e-07
2.38512e-07
2.38707e-07
2.38902e-07
2.39098e-07
2.39294e-07
2.39491e-07
2.39688e-07
2.39885e-07
2.40082e-07
2.4028e-07
2.40478e-07
2.40676e-07
2.40875e-07
2.41074e-07
2.41274e-07
2.41473e-07
2.41673e-07
2.41874e-07
2.42075e-07
2.42276e-07
2.42477e-07
2.42679e-07
2.42881e-07
2.43083e-07
2.43286e-07
2.43489e-07
2.43692e-07
2.43896e-07
2.441e-07
2.44305e-07
2.44509e-07
2.44715e-07
2.4492e-07
2.45126e-07
2.45332e-07
2.45537e-07
2.45744e-07
2.45951e-07
2.46158e-07
2.46366e-07
2.46574e-07
2.46782e-07
2.46991e-07
2.472e-07
2.47409e-07
2.47619e-07
2.47829e-07
2.4804e-07
2.48251e-07
2.48462e-07
2.48673e-07
2.48885e-07
2.49097e-07
2.4931e-07
2.49523e-07
2.49736e-07
2.4995e-07
2.50163e-07
2.50378e-07
2.50592e-07
2.50807e-07
2.51023e-07
2.51238e-07
2.51455e-07
2.51671e-07
2.51888e-07
2.52105e-07
2.52322e-07
2.5254e-07
2.52759e-07
2.52977e-07
2.53196e-07
2.53416e-07
2.53635e-07
2.53855e-07
2.54076e-07
2.54297e-07
2.54518e-07
2.5474e-07
2.54962e-07
2.55184e-07
2.55407e-07
2.5563e-07
2.55854e-07
2.56077e-07
2.56302e-07
2.56527e-07
2.56752e-07
2.56977e-07
2.57203e-07
2.5743e-07
2.57657e-07
2.57884e-07
2.58111e-07
2.5834e-07
2.58568e-07
2.58797e-07
2.59027e-07
2.59256e-07
2.59485e-07
2.59715e-07
2.59946e-07
2.60178e-07
2.60409e-07
2.6064e-07
2.60873e-07
2.61106e-07
2.61339e-07
2.61573e-07
2.61807e-07
2.62042e-07
2.62278e-07
2.62513e-07
2.62749e-07
2.62986e-07
2.63223e-07
2.6346e-07
2.63698e-07
2.63937e-07
2.64176e-07
2.64415e-07
2.64655e-07
2.64895e-07
2.65136e-07
2.65377e-07
2.65618e-07
2.65861e-07
2.66103e-07
2.66346e-07
2.6659e-07
2.66834e-07
2.67078e-07
2.67323e-07
2.67569e-07
2.67815e-07
2.68062e-07
2.68309e-07
2.68556e-07
2.68804e-07
2.69053e-07
2.69302e-07
2.69551e-07
2.69801e-07
2.70052e-07
2.70303e-07
2.70555e-07
2.70807e-07
2.7106e-07
2.71313e-07
2.71567e-07
2.71822e-07
2.72077e-07
2.72333e-07
2.72589e-07
2.72846e-07
2.73104e-07
2.73362e-07
2.73621e-07
2.73881e-07
2.74142e-07
2.74403e-07
2.74665e-07
2.74928e-07
2.75192e-07
2.75456e-07
2.75722e-07
2.75988e-07
2.76256e-07
2.76524e-07
2.76794e-07
2.77065e-07
2.77337e-07
2.7761e-07
2.77884e-07
2.7816e-07
2.78438e-07
2.78716e-07
2.78997e-07
2.79279e-07
2.79564e-07
2.7985e-07
2.80138e-07
2.80428e-07
2.80721e-07
2.81016e-07
2.81314e-07
2.81615e-07
2.81919e-07
2.82226e-07
2.82536e-07
2.8285e-07
2.83168e-07
2.8349e-07
2.83817e-07
2.84148e-07
2.84484e-07
2.84826e-07
2.85173e-07
2.85527e-07
2.85887e-07
2.86254e-07
2.86628e-07
2.87011e-07
2.87402e-07
2.87802e-07
2.88212e-07
2.88632e-07
2.89063e-07
2.89506e-07
2.89961e-07
2.9043e-07
2.90913e-07
2.91411e-07
2.91925e-07
2.92457e-07
2.93006e-07
2.93576e-07
2.94166e-07
2.94778e-07
2.95413e-07
2.96073e-07
2.9676e-07
2.97476e-07
2.98221e-07
2.98997e-07
2.99808e-07
3.00654e-07
3.01538e-07
3.02462e-07
3.03429e-07
3.04442e-07
3.05502e-07
3.06612e-07
3.07777e-07
3.08997e-07
3.10278e-07
3.11623e-07
3.13034e-07
3.14516e-07
3.16073e-07
3.17708e-07
3.19427e-07
3.21233e-07
3.23132e-07
3.25128e-07
3.27227e-07
3.29434e-07
3.31754e-07
3.34193e-07
3.36759e-07
3.39456e-07
3.42291e-07
3.45272e-07
3.48405e-07
3.51698e-07
3.55158e-07
3.58793e-07
3.62613e-07
3.66624e-07
3.70835e-07
3.75257e-07
3.79897e-07
3.84765e-07
3.89872e-07
3.95226e-07
4.00839e-07
4.06721e-07
4.12882e-07
4.19333e-07
4.26085e-07
4.3315e-07
4.40538e-07
4.48261e-07
4.5633e-07
4.64757e-07
4.73553e-07
4.82728e-07
4.92295e-07
5.02264e-07
5.12646e-07
5.23451e-07
5.34689e-07
5.46369e-07
5.585e-07
5.71089e-07
5.84145e-07
5.97673e-07
6.11677e-07
6.26163e-07
6.41131e-07
6.56584e-07
6.72519e-07
6.88935e-07
7.05826e-07
7.23185e-07
7.41002e-07
7.59264e-07
7.77957e-07
7.97061e-07
8.16554e-07
8.36411e-07
8.56602e-07
8.77094e-07
8.97849e-07
9.18826e-07
9.39978e-07
9.61253e-07
9.82597e-07
1.00395e-06
1.02524e-06
1.04641e-06
1.06737e-06
1.08805e-06
1.10837e-06
1.12823e-06
1.14754e-06
1.16621e-06
1.18414e-06
1.20123e-06
1.21737e-06
1.23246e-06
1.24639e-06
1.25906e-06
1.27035e-06
1.28016e-06
1.28839e-06
1.29493e-06
1.29968e-06
1.30253e-06
1.3034e-06
1.30222e-06
1.2989e-06
1.29334e-06
1.28549e-06
1.27527e-06
1.26264e-06
1.24752e-06
1.2299e-06
1.20972e-06
1.18696e-06
1.1616e-06
1.13363e-06
1.10306e-06
1.06988e-06
1.03414e-06
9.9585e-07
9.55068e-07
9.11852e-07
8.66277e-07
8.18438e-07
7.68444e-07
7.16428e-07
6.62546e-07
6.06979e-07
5.49938e-07
4.91667e-07
4.32447e-07
3.72603e-07
3.12506e-07
2.52581e-07
1.93312e-07
1.35245e-07
7.89955e-08
2.52463e-08
)
;

boundaryField
{
    fixedWall
    {
        type            zeroGradient;
    }
    outlet
    {
        type            inletOutlet;
        inletValue      uniform 0;
        value           uniform 0;
    }
    defaultFaces
    {
        type            empty;
    }
}


// ************************************************************************* //
