/*--------------------------------*- C++ -*----------------------------------*\
| =========                 |                                                 |
| \\      /  F ield         | OpenFOAM: The Open Source CFD Toolbox           |
|  \\    /   O peration     | Version:  2406                                  |
|   \\  /    A nd           | Website:  www.openfoam.com                      |
|    \\/     M anipulation  |                                                 |
\*---------------------------------------------------------------------------*/
FoamFile
{
    version     2.0;
    format      ascii;
    arch        "LSB;label=32;scalar=64";
    class       surfaceScalarField;
    location    "11.5";
    object      phi;
}
// * * * * * * * * * * * * * * * * * * * * * * * * * * * * * * * * * * * * * //

dimensions      [1 0 -1 0 0 0 0];

oriented        oriented;

internalField   nonuniform List<scalar> 
999
(
-1.48935e-08
-5.00526e-08
-9.81967e-08
-1.54867e-07
-2.17174e-07
-2.83202e-07
-3.51638e-07
-4.21567e-07
-4.92334e-07
-5.63461e-07
-6.34601e-07
-7.05507e-07
-7.75986e-07
-8.45897e-07
-9.15139e-07
-9.83639e-07
-1.05134e-06
-1.11819e-06
-1.18418e-06
-1.24927e-06
-1.31346e-06
-1.37675e-06
-1.43912e-06
-1.50059e-06
-1.56115e-06
-1.6208e-06
-1.67957e-06
-1.73745e-06
-1.79445e-06
-1.85058e-06
-1.90586e-06
-1.96028e-06
-2.01387e-06
-2.06663e-06
-2.11858e-06
-2.16972e-06
-2.22006e-06
-2.26961e-06
-2.3184e-06
-2.36641e-06
-2.41366e-06
-2.46018e-06
-2.50595e-06
-2.55099e-06
-2.59532e-06
-2.63893e-06
-2.68185e-06
-2.72407e-06
-2.7656e-06
-2.80646e-06
-2.84665e-06
-2.88618e-06
-2.92505e-06
-2.96328e-06
-3.00087e-06
-3.03783e-06
-3.07417e-06
-3.10989e-06
-3.145e-06
-3.17951e-06
-3.21343e-06
-3.24675e-06
-3.2795e-06
-3.31167e-06
-3.34327e-06
-3.37431e-06
-3.40479e-06
-3.43472e-06
-3.46411e-06
-3.49297e-06
-3.52129e-06
-3.54909e-06
-3.57637e-06
-3.60314e-06
-3.6294e-06
-3.65516e-06
-3.68043e-06
-3.70521e-06
-3.7295e-06
-3.75332e-06
-3.77667e-06
-3.79955e-06
-3.82198e-06
-3.84395e-06
-3.86548e-06
-3.88656e-06
-3.90721e-06
-3.92742e-06
-3.94721e-06
-3.96659e-06
-3.98555e-06
-4.0041e-06
-4.02225e-06
-4.04001e-06
-4.05738e-06
-4.07436e-06
-4.09096e-06
-4.10718e-06
-4.12304e-06
-4.13854e-06
-4.15368e-06
-4.16846e-06
-4.1829e-06
-4.197e-06
-4.21077e-06
-4.2242e-06
-4.23731e-06
-4.2501e-06
-4.26258e-06
-4.27475e-06
-4.28661e-06
-4.29817e-06
-4.30945e-06
-4.32043e-06
-4.33114e-06
-4.34156e-06
-4.35171e-06
-4.3616e-06
-4.37122e-06
-4.38059e-06
-4.3897e-06
-4.39857e-06
-4.4072e-06
-4.41559e-06
-4.42374e-06
-4.43167e-06
-4.43937e-06
-4.44686e-06
-4.45413e-06
-4.46119e-06
-4.46805e-06
-4.4747e-06
-4.48116e-06
-4.48743e-06
-4.49351e-06
-4.49941e-06
-4.50513e-06
-4.51068e-06
-4.51605e-06
-4.52126e-06
-4.5263e-06
-4.53119e-06
-4.53593e-06
-4.54051e-06
-4.54495e-06
-4.54924e-06
-4.55339e-06
-4.55741e-06
-4.5613e-06
-4.56506e-06
-4.56869e-06
-4.5722e-06
-4.57559e-06
-4.57886e-06
-4.58202e-06
-4.58507e-06
-4.58802e-06
-4.59086e-06
-4.5936e-06
-4.59624e-06
-4.59878e-06
-4.60123e-06
-4.60361e-06
-4.6059e-06
-4.60813e-06
-4.61026e-06
-4.6123e-06
-4.61427e-06
-4.61615e-06
-4.61795e-06
-4.6197e-06
-4.62139e-06
-4.62302e-06
-4.62457e-06
-4.62607e-06
-4.62752e-06
-4.62891e-06
-4.63024e-06
-4.63153e-06
-4.63276e-06
-4.63394e-06
-4.63507e-06
-4.63615e-06
-4.6372e-06
-4.63819e-06
-4.63915e-06
-4.64007e-06
-4.64095e-06
-4.64179e-06
-4.6426e-06
-4.64337e-06
-4.6441e-06
-4.64481e-06
-4.64549e-06
-4.64614e-06
-4.64676e-06
-4.64736e-06
-4.64792e-06
-4.64847e-06
-4.64899e-06
-4.64948e-06
-4.64995e-06
-4.6504e-06
-4.65084e-06
-4.65125e-06
-4.65164e-06
-4.65201e-06
-4.65237e-06
-4.65271e-06
-4.65303e-06
-4.65334e-06
-4.65363e-06
-4.65391e-06
-4.65418e-06
-4.65443e-06
-4.65468e-06
-4.65491e-06
-4.65512e-06
-4.65533e-06
-4.65553e-06
-4.65572e-06
-4.6559e-06
-4.65606e-06
-4.65623e-06
-4.65638e-06
-4.65652e-06
-4.65666e-06
-4.65679e-06
-4.65691e-06
-4.65703e-06
-4.65714e-06
-4.65724e-06
-4.65734e-06
-4.65743e-06
-4.65752e-06
-4.65761e-06
-4.65768e-06
-4.65776e-06
-4.65783e-06
-4.65789e-06
-4.65796e-06
-4.65801e-06
-4.65807e-06
-4.65812e-06
-4.65817e-06
-4.65821e-06
-4.65826e-06
-4.6583e-06
-4.65833e-06
-4.65837e-06
-4.6584e-06
-4.65843e-06
-4.65846e-06
-4.65849e-06
-4.65851e-06
-4.65854e-06
-4.65856e-06
-4.65858e-06
-4.65859e-06
-4.65861e-06
-4.65863e-06
-4.65864e-06
-4.65865e-06
-4.65867e-06
-4.65868e-06
-4.65869e-06
-4.65869e-06
-4.6587e-06
-4.65871e-06
-4.65871e-06
-4.65872e-06
-4.65872e-06
-4.65873e-06
-4.65873e-06
-4.65873e-06
-4.65873e-06
-4.65874e-06
-4.65874e-06
-4.65874e-06
-4.65874e-06
-4.65874e-06
-4.65874e-06
-4.65873e-06
-4.65873e-06
-4.65873e-06
-4.65873e-06
-4.65873e-06
-4.65872e-06
-4.65872e-06
-4.65872e-06
-4.65871e-06
-4.65871e-06
-4.65871e-06
-4.6587e-06
-4.6587e-06
-4.65869e-06
-4.65869e-06
-4.65868e-06
-4.65868e-06
-4.65867e-06
-4.65867e-06
-4.65867e-06
-4.65866e-06
-4.65866e-06
-4.65865e-06
-4.65865e-06
-4.65864e-06
-4.65864e-06
-4.65863e-06
-4.65863e-06
-4.65862e-06
-4.65862e-06
-4.65861e-06
-4.65861e-06
-4.6586e-06
-4.6586e-06
-4.65859e-06
-4.65859e-06
-4.65859e-06
-4.65858e-06
-4.65858e-06
-4.65857e-06
-4.65857e-06
-4.65856e-06
-4.65856e-06
-4.65856e-06
-4.65855e-06
-4.65855e-06
-4.65854e-06
-4.65854e-06
-4.65854e-06
-4.65853e-06
-4.65853e-06
-4.65853e-06
-4.65852e-06
-4.65852e-06
-4.65852e-06
-4.65851e-06
-4.65851e-06
-4.65851e-06
-4.65851e-06
-4.65851e-06
-4.6585e-06
-4.6585e-06
-4.6585e-06
-4.65849e-06
-4.65849e-06
-4.65849e-06
-4.65849e-06
-4.65849e-06
-4.65849e-06
-4.65848e-06
-4.65848e-06
-4.65848e-06
-4.65848e-06
-4.65848e-06
-4.65848e-06
-4.65848e-06
-4.65848e-06
-4.65848e-06
-4.65848e-06
-4.65848e-06
-4.65847e-06
-4.65848e-06
-4.65847e-06
-4.65847e-06
-4.65847e-06
-4.65847e-06
-4.65847e-06
-4.65847e-06
-4.65847e-06
-4.65847e-06
-4.65847e-06
-4.65847e-06
-4.65847e-06
-4.65847e-06
-4.65848e-06
-4.65847e-06
-4.65848e-06
-4.65848e-06
-4.65848e-06
-4.65848e-06
-4.65848e-06
-4.65848e-06
-4.65848e-06
-4.65848e-06
-4.65848e-06
-4.65848e-06
-4.65848e-06
-4.65848e-06
-4.65848e-06
-4.65848e-06
-4.65848e-06
-4.65848e-06
-4.65849e-06
-4.65849e-06
-4.65849e-06
-4.65849e-06
-4.65849e-06
-4.65849e-06
-4.65849e-06
-4.65849e-06
-4.65849e-06
-4.65849e-06
-4.65849e-06
-4.65849e-06
-4.65849e-06
-4.65849e-06
-4.65849e-06
-4.6585e-06
-4.6585e-06
-4.6585e-06
-4.6585e-06
-4.6585e-06
-4.6585e-06
-4.6585e-06
-4.6585e-06
-4.6585e-06
-4.6585e-06
-4.6585e-06
-4.6585e-06
-4.6585e-06
-4.6585e-06
-4.6585e-06
-4.6585e-06
-4.6585e-06
-4.6585e-06
-4.6585e-06
-4.6585e-06
-4.65851e-06
-4.65851e-06
-4.65851e-06
-4.65851e-06
-4.65851e-06
-4.65851e-06
-4.65851e-06
-4.65851e-06
-4.65851e-06
-4.65851e-06
-4.65851e-06
-4.65851e-06
-4.65851e-06
-4.65851e-06
-4.65851e-06
-4.65851e-06
-4.65851e-06
-4.65851e-06
-4.65851e-06
-4.65851e-06
-4.65851e-06
-4.65851e-06
-4.65851e-06
-4.65851e-06
-4.65851e-06
-4.65851e-06
-4.65851e-06
-4.65851e-06
-4.65851e-06
-4.65851e-06
-4.65851e-06
-4.65851e-06
-4.65851e-06
-4.65851e-06
-4.65851e-06
-4.65851e-06
-4.65851e-06
-4.65851e-06
-4.65851e-06
-4.65851e-06
-4.65851e-06
-4.65851e-06
-4.65851e-06
-4.65851e-06
-4.65851e-06
-4.65851e-06
-4.65851e-06
-4.65851e-06
-4.65851e-06
-4.65851e-06
-4.65851e-06
-4.65851e-06
-4.65851e-06
-4.65851e-06
-4.65851e-06
-4.65851e-06
-4.65851e-06
-4.65851e-06
-4.65851e-06
-4.65851e-06
-4.6585e-06
-4.6585e-06
-4.6585e-06
-4.65851e-06
-4.65851e-06
-4.65851e-06
-4.65851e-06
-4.65851e-06
-4.65851e-06
-4.65851e-06
-4.65851e-06
-4.65851e-06
-4.65851e-06
-4.65851e-06
-4.65851e-06
-4.65851e-06
-4.6585e-06
-4.6585e-06
-4.6585e-06
-4.6585e-06
-4.6585e-06
-4.6585e-06
-4.6585e-06
-4.6585e-06
-4.6585e-06
-4.6585e-06
-4.6585e-06
-4.6585e-06
-4.6585e-06
-4.6585e-06
-4.6585e-06
-4.65849e-06
-4.65849e-06
-4.65849e-06
-4.65849e-06
-4.65849e-06
-4.65849e-06
-4.65849e-06
-4.65849e-06
-4.65849e-06
-4.65849e-06
-4.65849e-06
-4.65849e-06
-4.65849e-06
-4.65849e-06
-4.65849e-06
-4.65848e-06
-4.65848e-06
-4.65848e-06
-4.65848e-06
-4.65848e-06
-4.65848e-06
-4.65848e-06
-4.65848e-06
-4.65848e-06
-4.65848e-06
-4.65848e-06
-4.65848e-06
-4.65848e-06
-4.65847e-06
-4.65847e-06
-4.65847e-06
-4.65847e-06
-4.65847e-06
-4.65847e-06
-4.65847e-06
-4.65847e-06
-4.65847e-06
-4.65847e-06
-4.65846e-06
-4.65846e-06
-4.65846e-06
-4.65846e-06
-4.65846e-06
-4.65846e-06
-4.65846e-06
-4.65846e-06
-4.65846e-06
-4.65846e-06
-4.65846e-06
-4.65846e-06
-4.65846e-06
-4.65846e-06
-4.65846e-06
-4.65846e-06
-4.65846e-06
-4.65846e-06
-4.65845e-06
-4.65845e-06
-4.65845e-06
-4.65845e-06
-4.65845e-06
-4.65845e-06
-4.65845e-06
-4.65845e-06
-4.65845e-06
-4.65845e-06
-4.65845e-06
-4.65845e-06
-4.65845e-06
-4.65845e-06
-4.65844e-06
-4.65844e-06
-4.65844e-06
-4.65844e-06
-4.65844e-06
-4.65844e-06
-4.65844e-06
-4.65844e-06
-4.65844e-06
-4.65844e-06
-4.65844e-06
-4.65844e-06
-4.65844e-06
-4.65844e-06
-4.65844e-06
-4.65844e-06
-4.65844e-06
-4.65844e-06
-4.65844e-06
-4.65845e-06
-4.65844e-06
-4.65845e-06
-4.65845e-06
-4.65845e-06
-4.65845e-06
-4.65845e-06
-4.65845e-06
-4.65845e-06
-4.65845e-06
-4.65845e-06
-4.65845e-06
-4.65845e-06
-4.65845e-06
-4.65845e-06
-4.65845e-06
-4.65845e-06
-4.65845e-06
-4.65845e-06
-4.65845e-06
-4.65845e-06
-4.65845e-06
-4.65845e-06
-4.65845e-06
-4.65845e-06
-4.65845e-06
-4.65845e-06
-4.65845e-06
-4.65845e-06
-4.65845e-06
-4.65845e-06
-4.65845e-06
-4.65845e-06
-4.65845e-06
-4.65845e-06
-4.65845e-06
-4.65845e-06
-4.65845e-06
-4.65845e-06
-4.65845e-06
-4.65845e-06
-4.65845e-06
-4.65845e-06
-4.65845e-06
-4.65845e-06
-4.65845e-06
-4.65845e-06
-4.65844e-06
-4.65844e-06
-4.65844e-06
-4.65844e-06
-4.65844e-06
-4.65844e-06
-4.65844e-06
-4.65844e-06
-4.65843e-06
-4.65843e-06
-4.65843e-06
-4.65843e-06
-4.65843e-06
-4.65843e-06
-4.65842e-06
-4.65842e-06
-4.65842e-06
-4.65842e-06
-4.65842e-06
-4.65842e-06
-4.65841e-06
-4.65841e-06
-4.65841e-06
-4.65841e-06
-4.6584e-06
-4.6584e-06
-4.6584e-06
-4.6584e-06
-4.6584e-06
-4.65839e-06
-4.65839e-06
-4.65839e-06
-4.65839e-06
-4.65839e-06
-4.65838e-06
-4.65838e-06
-4.65838e-06
-4.65838e-06
-4.65838e-06
-4.65837e-06
-4.65837e-06
-4.65837e-06
-4.65837e-06
-4.65837e-06
-4.65837e-06
-4.65836e-06
-4.65836e-06
-4.65836e-06
-4.65836e-06
-4.65836e-06
-4.65836e-06
-4.65835e-06
-4.65835e-06
-4.65835e-06
-4.65835e-06
-4.65835e-06
-4.65835e-06
-4.65835e-06
-4.65835e-06
-4.65835e-06
-4.65835e-06
-4.65834e-06
-4.65834e-06
-4.65834e-06
-4.65834e-06
-4.65834e-06
-4.65834e-06
-4.65834e-06
-4.65835e-06
-4.65834e-06
-4.65835e-06
-4.65835e-06
-4.65835e-06
-4.65835e-06
-4.65835e-06
-4.65835e-06
-4.65835e-06
-4.65835e-06
-4.65836e-06
-4.65836e-06
-4.65836e-06
-4.65836e-06
-4.65836e-06
-4.65837e-06
-4.65837e-06
-4.65837e-06
-4.65837e-06
-4.65838e-06
-4.65838e-06
-4.65838e-06
-4.65839e-06
-4.65839e-06
-4.6584e-06
-4.6584e-06
-4.65841e-06
-4.65842e-06
-4.65842e-06
-4.65843e-06
-4.65843e-06
-4.65844e-06
-4.65845e-06
-4.65845e-06
-4.65846e-06
-4.65847e-06
-4.65848e-06
-4.65849e-06
-4.6585e-06
-4.65851e-06
-4.65852e-06
-4.65854e-06
-4.65855e-06
-4.65856e-06
-4.65858e-06
-4.6586e-06
-4.65861e-06
-4.65863e-06
-4.65865e-06
-4.65868e-06
-4.6587e-06
-4.65873e-06
-4.65875e-06
-4.65878e-06
-4.65882e-06
-4.65885e-06
-4.65889e-06
-4.65893e-06
-4.65898e-06
-4.65902e-06
-4.65908e-06
-4.65913e-06
-4.65919e-06
-4.65926e-06
-4.65933e-06
-4.6594e-06
-4.65948e-06
-4.65957e-06
-4.65967e-06
-4.65977e-06
-4.65988e-06
-4.66e-06
-4.66013e-06
-4.66027e-06
-4.66042e-06
-4.66058e-06
-4.66075e-06
-4.66094e-06
-4.66114e-06
-4.66136e-06
-4.66159e-06
-4.66184e-06
-4.66211e-06
-4.6624e-06
-4.66271e-06
-4.66304e-06
-4.6634e-06
-4.66378e-06
-4.6642e-06
-4.66464e-06
-4.66511e-06
-4.66561e-06
-4.66615e-06
-4.66673e-06
-4.66735e-06
-4.66802e-06
-4.66872e-06
-4.66948e-06
-4.67029e-06
-4.67115e-06
-4.67207e-06
-4.67305e-06
-4.6741e-06
-4.67522e-06
-4.67641e-06
-4.67767e-06
-4.67902e-06
-4.68045e-06
-4.68198e-06
-4.6836e-06
-4.68532e-06
-4.68715e-06
-4.68909e-06
-4.69115e-06
-4.69334e-06
-4.69566e-06
-4.69812e-06
-4.70072e-06
-4.70348e-06
-4.7064e-06
-4.70949e-06
-4.71276e-06
-4.71622e-06
-4.71987e-06
-4.72373e-06
-4.7278e-06
-4.7321e-06
-4.73663e-06
-4.74142e-06
-4.74646e-06
-4.75177e-06
-4.75737e-06
-4.76326e-06
-4.76946e-06
-4.77598e-06
-4.78284e-06
-4.79005e-06
-4.79762e-06
-4.80557e-06
-4.81391e-06
-4.82267e-06
-4.83186e-06
-4.84148e-06
-4.85158e-06
-4.86215e-06
-4.87321e-06
-4.8848e-06
-4.89691e-06
-4.90959e-06
-4.92283e-06
-4.93668e-06
-4.95114e-06
-4.96623e-06
-4.98199e-06
-4.99842e-06
-5.01556e-06
-5.03342e-06
-5.05204e-06
-5.07143e-06
-5.09161e-06
-5.11262e-06
-5.13447e-06
-5.1572e-06
-5.18083e-06
-5.20538e-06
-5.23088e-06
-5.25736e-06
-5.28485e-06
-5.31337e-06
-5.34295e-06
-5.37361e-06
-5.4054e-06
-5.43833e-06
-5.47244e-06
-5.50775e-06
-5.54429e-06
-5.58211e-06
-5.62121e-06
-5.66165e-06
-5.70343e-06
-5.74661e-06
-5.79121e-06
-5.83725e-06
-5.88478e-06
-5.93383e-06
-5.98442e-06
-6.0366e-06
-6.09038e-06
-6.14581e-06
-6.20293e-06
-6.26175e-06
-6.32233e-06
-6.38468e-06
-6.44885e-06
-6.51488e-06
-6.58279e-06
-6.65262e-06
-6.7244e-06
-6.79818e-06
-6.87399e-06
-6.95187e-06
-7.03185e-06
-7.11397e-06
-7.19827e-06
-7.28479e-06
-7.37356e-06
-7.46463e-06
-7.55804e-06
-7.65383e-06
-7.75203e-06
-7.85269e-06
-7.95585e-06
-8.06157e-06
-8.16987e-06
-8.28081e-06
-8.39443e-06
-8.51079e-06
-8.62993e-06
-8.75189e-06
-8.87674e-06
-9.00453e-06
-9.13531e-06
-9.26913e-06
-9.40605e-06
-9.54615e-06
-9.68947e-06
-9.83608e-06
-9.98604e-06
-1.01394e-05
-1.02963e-05
-1.04568e-05
-1.06209e-05
-1.07887e-05
-1.09604e-05
-1.11359e-05
-1.13154e-05
-1.1499e-05
-1.16869e-05
-1.18791e-05
-1.20759e-05
-1.22759e-05
-1.24808e-05
-1.26908e-05
-1.29061e-05
-1.31265e-05
-1.33523e-05
-1.35834e-05
-1.382e-05
-1.40621e-05
-1.43099e-05
-1.45634e-05
-1.48229e-05
-1.50883e-05
-1.53599e-05
-1.56375e-05
-1.59213e-05
-1.62112e-05
-1.65071e-05
-1.68088e-05
-1.7116e-05
-1.74284e-05
-1.77453e-05
-1.8066e-05
-1.83895e-05
-1.87143e-05
-1.90388e-05
-1.93607e-05
-1.96772e-05
-1.99847e-05
-2.02788e-05
-2.05539e-05
-2.08031e-05
-2.10179e-05
-2.11881e-05
-2.13012e-05
)
;

boundaryField
{
    fixedWall
    {
        type            calculated;
        value           uniform 0;
    }
    outlet
    {
        type            calculated;
        value           uniform -2.13427e-05;
    }
    defaultFaces
    {
        type            empty;
    }
}


// ************************************************************************* //
