/*--------------------------------*- C++ -*----------------------------------*\
| =========                 |                                                 |
| \\      /  F ield         | OpenFOAM: The Open Source CFD Toolbox           |
|  \\    /   O peration     | Version:  2406                                  |
|   \\  /    A nd           | Website:  www.openfoam.com                      |
|    \\/     M anipulation  |                                                 |
\*---------------------------------------------------------------------------*/
FoamFile
{
    version     2.0;
    format      ascii;
    arch        "LSB;label=32;scalar=64";
    class       volVectorField;
    location    "11.5";
    object      U;
}
// * * * * * * * * * * * * * * * * * * * * * * * * * * * * * * * * * * * * * //

dimensions      [0 1 -1 0 0 0 0];

internalField   nonuniform List<vector> 
1000
(
(-7.92566e-07 0 0)
(-3.78626e-06 0 0)
(-9.7276e-06 0 0)
(-1.79438e-05 0 0)
(-2.7924e-05 0 0)
(-3.93574e-05 0 0)
(-5.20272e-05 0 0)
(-6.57565e-05 0 0)
(-8.03951e-05 0 0)
(-9.58151e-05 0 0)
(-0.000111912 0 0)
(-0.000128594 0 0)
(-0.000145783 0 0)
(-0.000163411 0 0)
(-0.00018142 0 0)
(-0.000199756 0 0)
(-0.000218375 0 0)
(-0.000237234 0 0)
(-0.000256298 0 0)
(-0.00027553 0 0)
(-0.000294905 0 0)
(-0.000314391 0 0)
(-0.000333967 0 0)
(-0.000353608 0 0)
(-0.000373294 0 0)
(-0.000393007 0 0)
(-0.000412727 0 0)
(-0.00043244 0 0)
(-0.000452129 0 0)
(-0.000471782 0 0)
(-0.000491384 0 0)
(-0.000510924 0 0)
(-0.00053039 0 0)
(-0.000549773 0 0)
(-0.000569061 0 0)
(-0.000588247 0 0)
(-0.000607321 0 0)
(-0.000626276 0 0)
(-0.000645103 0 0)
(-0.000663797 0 0)
(-0.000682349 0 0)
(-0.000700755 0 0)
(-0.000719008 0 0)
(-0.000737104 0 0)
(-0.000755036 0 0)
(-0.000772801 0 0)
(-0.000790393 0 0)
(-0.000807809 0 0)
(-0.000825045 0 0)
(-0.000842098 0 0)
(-0.000858965 0 0)
(-0.000875641 0 0)
(-0.000892125 0 0)
(-0.000908414 0 0)
(-0.000924506 0 0)
(-0.000940399 0 0)
(-0.00095609 0 0)
(-0.000971578 0 0)
(-0.000986861 0 0)
(-0.00100194 0 0)
(-0.00101681 0 0)
(-0.00103147 0 0)
(-0.00104593 0 0)
(-0.00106017 0 0)
(-0.00107421 0 0)
(-0.00108803 0 0)
(-0.00110164 0 0)
(-0.00111505 0 0)
(-0.00112824 0 0)
(-0.00114122 0 0)
(-0.00115399 0 0)
(-0.00116655 0 0)
(-0.0011789 0 0)
(-0.00119104 0 0)
(-0.00120298 0 0)
(-0.00121471 0 0)
(-0.00122623 0 0)
(-0.00123754 0 0)
(-0.00124865 0 0)
(-0.00125956 0 0)
(-0.00127026 0 0)
(-0.00128077 0 0)
(-0.00129107 0 0)
(-0.00130118 0 0)
(-0.00131109 0 0)
(-0.0013208 0 0)
(-0.00133032 0 0)
(-0.00133965 0 0)
(-0.00134879 0 0)
(-0.00135774 0 0)
(-0.00136651 0 0)
(-0.00137509 0 0)
(-0.00138349 0 0)
(-0.00139171 0 0)
(-0.00139975 0 0)
(-0.00140762 0 0)
(-0.00141531 0 0)
(-0.00142283 0 0)
(-0.00143018 0 0)
(-0.00143736 0 0)
(-0.00144438 0 0)
(-0.00145123 0 0)
(-0.00145792 0 0)
(-0.00146446 0 0)
(-0.00147083 0 0)
(-0.00147706 0 0)
(-0.00148313 0 0)
(-0.00148905 0 0)
(-0.00149483 0 0)
(-0.00150046 0 0)
(-0.00150595 0 0)
(-0.0015113 0 0)
(-0.00151651 0 0)
(-0.00152159 0 0)
(-0.00152654 0 0)
(-0.00153135 0 0)
(-0.00153604 0 0)
(-0.0015406 0 0)
(-0.00154504 0 0)
(-0.00154935 0 0)
(-0.00155355 0 0)
(-0.00155763 0 0)
(-0.0015616 0 0)
(-0.00156546 0 0)
(-0.00156921 0 0)
(-0.00157285 0 0)
(-0.00157638 0 0)
(-0.00157981 0 0)
(-0.00158315 0 0)
(-0.00158638 0 0)
(-0.00158952 0 0)
(-0.00159256 0 0)
(-0.00159552 0 0)
(-0.00159838 0 0)
(-0.00160116 0 0)
(-0.00160385 0 0)
(-0.00160645 0 0)
(-0.00160898 0 0)
(-0.00161142 0 0)
(-0.00161379 0 0)
(-0.00161608 0 0)
(-0.0016183 0 0)
(-0.00162045 0 0)
(-0.00162252 0 0)
(-0.00162453 0 0)
(-0.00162648 0 0)
(-0.00162835 0 0)
(-0.00163017 0 0)
(-0.00163192 0 0)
(-0.00163362 0 0)
(-0.00163525 0 0)
(-0.00163683 0 0)
(-0.00163836 0 0)
(-0.00163983 0 0)
(-0.00164125 0 0)
(-0.00164262 0 0)
(-0.00164394 0 0)
(-0.00164521 0 0)
(-0.00164644 0 0)
(-0.00164762 0 0)
(-0.00164876 0 0)
(-0.00164985 0 0)
(-0.00165091 0 0)
(-0.00165193 0 0)
(-0.00165292 0 0)
(-0.00165387 0 0)
(-0.00165478 0 0)
(-0.00165565 0 0)
(-0.00165649 0 0)
(-0.00165729 0 0)
(-0.00165806 0 0)
(-0.00165881 0 0)
(-0.00165953 0 0)
(-0.00166021 0 0)
(-0.00166087 0 0)
(-0.00166151 0 0)
(-0.00166212 0 0)
(-0.00166271 0 0)
(-0.00166328 0 0)
(-0.00166382 0 0)
(-0.00166433 0 0)
(-0.00166483 0 0)
(-0.00166531 0 0)
(-0.00166576 0 0)
(-0.0016662 0 0)
(-0.00166662 0 0)
(-0.00166702 0 0)
(-0.0016674 0 0)
(-0.00166777 0 0)
(-0.00166812 0 0)
(-0.00166846 0 0)
(-0.00166878 0 0)
(-0.00166908 0 0)
(-0.00166938 0 0)
(-0.00166966 0 0)
(-0.00166993 0 0)
(-0.00167019 0 0)
(-0.00167043 0 0)
(-0.00167067 0 0)
(-0.00167089 0 0)
(-0.0016711 0 0)
(-0.00167131 0 0)
(-0.0016715 0 0)
(-0.00167169 0 0)
(-0.00167186 0 0)
(-0.00167203 0 0)
(-0.00167219 0 0)
(-0.00167235 0 0)
(-0.00167249 0 0)
(-0.00167263 0 0)
(-0.00167276 0 0)
(-0.00167289 0 0)
(-0.00167301 0 0)
(-0.00167312 0 0)
(-0.00167323 0 0)
(-0.00167333 0 0)
(-0.00167343 0 0)
(-0.00167352 0 0)
(-0.00167361 0 0)
(-0.00167369 0 0)
(-0.00167377 0 0)
(-0.00167384 0 0)
(-0.00167392 0 0)
(-0.00167398 0 0)
(-0.00167405 0 0)
(-0.00167411 0 0)
(-0.00167417 0 0)
(-0.00167422 0 0)
(-0.00167427 0 0)
(-0.00167432 0 0)
(-0.00167437 0 0)
(-0.00167441 0 0)
(-0.00167445 0 0)
(-0.00167449 0 0)
(-0.00167452 0 0)
(-0.00167456 0 0)
(-0.00167459 0 0)
(-0.00167462 0 0)
(-0.00167465 0 0)
(-0.00167468 0 0)
(-0.0016747 0 0)
(-0.00167473 0 0)
(-0.00167475 0 0)
(-0.00167477 0 0)
(-0.00167479 0 0)
(-0.00167481 0 0)
(-0.00167483 0 0)
(-0.00167484 0 0)
(-0.00167486 0 0)
(-0.00167487 0 0)
(-0.00167488 0 0)
(-0.0016749 0 0)
(-0.00167491 0 0)
(-0.00167492 0 0)
(-0.00167493 0 0)
(-0.00167494 0 0)
(-0.00167495 0 0)
(-0.00167495 0 0)
(-0.00167496 0 0)
(-0.00167497 0 0)
(-0.00167497 0 0)
(-0.00167498 0 0)
(-0.00167498 0 0)
(-0.00167499 0 0)
(-0.00167499 0 0)
(-0.001675 0 0)
(-0.001675 0 0)
(-0.001675 0 0)
(-0.001675 0 0)
(-0.00167501 0 0)
(-0.00167501 0 0)
(-0.00167501 0 0)
(-0.00167501 0 0)
(-0.00167501 0 0)
(-0.00167501 0 0)
(-0.00167501 0 0)
(-0.00167501 0 0)
(-0.00167501 0 0)
(-0.00167501 0 0)
(-0.00167501 0 0)
(-0.00167501 0 0)
(-0.00167501 0 0)
(-0.00167501 0 0)
(-0.00167501 0 0)
(-0.00167501 0 0)
(-0.00167501 0 0)
(-0.00167501 0 0)
(-0.00167501 0 0)
(-0.00167501 0 0)
(-0.00167501 0 0)
(-0.001675 0 0)
(-0.00167501 0 0)
(-0.001675 0 0)
(-0.001675 0 0)
(-0.001675 0 0)
(-0.00167499 0 0)
(-0.001675 0 0)
(-0.00167499 0 0)
(-0.00167499 0 0)
(-0.00167499 0 0)
(-0.00167499 0 0)
(-0.00167499 0 0)
(-0.00167499 0 0)
(-0.00167498 0 0)
(-0.00167498 0 0)
(-0.00167498 0 0)
(-0.00167498 0 0)
(-0.00167498 0 0)
(-0.00167498 0 0)
(-0.00167497 0 0)
(-0.00167498 0 0)
(-0.00167497 0 0)
(-0.00167497 0 0)
(-0.00167497 0 0)
(-0.00167496 0 0)
(-0.00167497 0 0)
(-0.00167496 0 0)
(-0.00167496 0 0)
(-0.00167496 0 0)
(-0.00167496 0 0)
(-0.00167496 0 0)
(-0.00167495 0 0)
(-0.00167496 0 0)
(-0.00167495 0 0)
(-0.00167495 0 0)
(-0.00167495 0 0)
(-0.00167495 0 0)
(-0.00167495 0 0)
(-0.00167495 0 0)
(-0.00167495 0 0)
(-0.00167495 0 0)
(-0.00167495 0 0)
(-0.00167494 0 0)
(-0.00167495 0 0)
(-0.00167494 0 0)
(-0.00167494 0 0)
(-0.00167494 0 0)
(-0.00167494 0 0)
(-0.00167494 0 0)
(-0.00167494 0 0)
(-0.00167494 0 0)
(-0.00167494 0 0)
(-0.00167494 0 0)
(-0.00167494 0 0)
(-0.00167494 0 0)
(-0.00167493 0 0)
(-0.00167494 0 0)
(-0.00167493 0 0)
(-0.00167494 0 0)
(-0.00167493 0 0)
(-0.00167494 0 0)
(-0.00167494 0 0)
(-0.00167493 0 0)
(-0.00167494 0 0)
(-0.00167493 0 0)
(-0.00167494 0 0)
(-0.00167493 0 0)
(-0.00167494 0 0)
(-0.00167493 0 0)
(-0.00167494 0 0)
(-0.00167494 0 0)
(-0.00167493 0 0)
(-0.00167494 0 0)
(-0.00167493 0 0)
(-0.00167494 0 0)
(-0.00167494 0 0)
(-0.00167494 0 0)
(-0.00167494 0 0)
(-0.00167494 0 0)
(-0.00167494 0 0)
(-0.00167494 0 0)
(-0.00167494 0 0)
(-0.00167494 0 0)
(-0.00167494 0 0)
(-0.00167494 0 0)
(-0.00167494 0 0)
(-0.00167494 0 0)
(-0.00167494 0 0)
(-0.00167494 0 0)
(-0.00167494 0 0)
(-0.00167494 0 0)
(-0.00167494 0 0)
(-0.00167494 0 0)
(-0.00167494 0 0)
(-0.00167495 0 0)
(-0.00167495 0 0)
(-0.00167495 0 0)
(-0.00167495 0 0)
(-0.00167495 0 0)
(-0.00167495 0 0)
(-0.00167495 0 0)
(-0.00167495 0 0)
(-0.00167495 0 0)
(-0.00167495 0 0)
(-0.00167495 0 0)
(-0.00167495 0 0)
(-0.00167495 0 0)
(-0.00167495 0 0)
(-0.00167495 0 0)
(-0.00167495 0 0)
(-0.00167495 0 0)
(-0.00167495 0 0)
(-0.00167495 0 0)
(-0.00167495 0 0)
(-0.00167496 0 0)
(-0.00167495 0 0)
(-0.00167496 0 0)
(-0.00167496 0 0)
(-0.00167496 0 0)
(-0.00167496 0 0)
(-0.00167496 0 0)
(-0.00167496 0 0)
(-0.00167496 0 0)
(-0.00167496 0 0)
(-0.00167496 0 0)
(-0.00167496 0 0)
(-0.00167496 0 0)
(-0.00167496 0 0)
(-0.00167496 0 0)
(-0.00167496 0 0)
(-0.00167496 0 0)
(-0.00167496 0 0)
(-0.00167496 0 0)
(-0.00167496 0 0)
(-0.00167496 0 0)
(-0.00167496 0 0)
(-0.00167496 0 0)
(-0.00167496 0 0)
(-0.00167496 0 0)
(-0.00167496 0 0)
(-0.00167496 0 0)
(-0.00167497 0 0)
(-0.00167496 0 0)
(-0.00167496 0 0)
(-0.00167497 0 0)
(-0.00167496 0 0)
(-0.00167497 0 0)
(-0.00167497 0 0)
(-0.00167497 0 0)
(-0.00167497 0 0)
(-0.00167497 0 0)
(-0.00167497 0 0)
(-0.00167497 0 0)
(-0.00167496 0 0)
(-0.00167497 0 0)
(-0.00167497 0 0)
(-0.00167497 0 0)
(-0.00167497 0 0)
(-0.00167497 0 0)
(-0.00167497 0 0)
(-0.00167497 0 0)
(-0.00167497 0 0)
(-0.00167497 0 0)
(-0.00167497 0 0)
(-0.00167497 0 0)
(-0.00167497 0 0)
(-0.00167497 0 0)
(-0.00167497 0 0)
(-0.00167497 0 0)
(-0.00167497 0 0)
(-0.00167497 0 0)
(-0.00167497 0 0)
(-0.00167497 0 0)
(-0.00167497 0 0)
(-0.00167497 0 0)
(-0.00167497 0 0)
(-0.00167497 0 0)
(-0.00167497 0 0)
(-0.00167497 0 0)
(-0.00167497 0 0)
(-0.00167497 0 0)
(-0.00167497 0 0)
(-0.00167497 0 0)
(-0.00167497 0 0)
(-0.00167497 0 0)
(-0.00167497 0 0)
(-0.00167497 0 0)
(-0.00167497 0 0)
(-0.00167497 0 0)
(-0.00167497 0 0)
(-0.00167497 0 0)
(-0.00167497 0 0)
(-0.00167497 0 0)
(-0.00167497 0 0)
(-0.00167497 0 0)
(-0.00167497 0 0)
(-0.00167497 0 0)
(-0.00167497 0 0)
(-0.00167497 0 0)
(-0.00167497 0 0)
(-0.00167497 0 0)
(-0.00167497 0 0)
(-0.00167497 0 0)
(-0.00167497 0 0)
(-0.00167497 0 0)
(-0.00167497 0 0)
(-0.00167497 0 0)
(-0.00167497 0 0)
(-0.00167497 0 0)
(-0.00167497 0 0)
(-0.00167497 0 0)
(-0.00167497 0 0)
(-0.00167497 0 0)
(-0.00167497 0 0)
(-0.00167497 0 0)
(-0.00167497 0 0)
(-0.00167497 0 0)
(-0.00167497 0 0)
(-0.00167497 0 0)
(-0.00167497 0 0)
(-0.00167497 0 0)
(-0.00167497 0 0)
(-0.00167497 0 0)
(-0.00167497 0 0)
(-0.00167497 0 0)
(-0.00167497 0 0)
(-0.00167497 0 0)
(-0.00167497 0 0)
(-0.00167497 0 0)
(-0.00167497 0 0)
(-0.00167497 0 0)
(-0.00167497 0 0)
(-0.00167496 0 0)
(-0.00167497 0 0)
(-0.00167496 0 0)
(-0.00167497 0 0)
(-0.00167497 0 0)
(-0.00167496 0 0)
(-0.00167497 0 0)
(-0.00167496 0 0)
(-0.00167497 0 0)
(-0.00167496 0 0)
(-0.00167496 0 0)
(-0.00167496 0 0)
(-0.00167496 0 0)
(-0.00167496 0 0)
(-0.00167496 0 0)
(-0.00167496 0 0)
(-0.00167496 0 0)
(-0.00167496 0 0)
(-0.00167496 0 0)
(-0.00167496 0 0)
(-0.00167496 0 0)
(-0.00167496 0 0)
(-0.00167496 0 0)
(-0.00167496 0 0)
(-0.00167496 0 0)
(-0.00167496 0 0)
(-0.00167496 0 0)
(-0.00167496 0 0)
(-0.00167496 0 0)
(-0.00167496 0 0)
(-0.00167496 0 0)
(-0.00167496 0 0)
(-0.00167496 0 0)
(-0.00167496 0 0)
(-0.00167496 0 0)
(-0.00167496 0 0)
(-0.00167496 0 0)
(-0.00167496 0 0)
(-0.00167495 0 0)
(-0.00167496 0 0)
(-0.00167496 0 0)
(-0.00167495 0 0)
(-0.00167496 0 0)
(-0.00167495 0 0)
(-0.00167496 0 0)
(-0.00167495 0 0)
(-0.00167496 0 0)
(-0.00167495 0 0)
(-0.00167496 0 0)
(-0.00167495 0 0)
(-0.00167496 0 0)
(-0.00167495 0 0)
(-0.00167495 0 0)
(-0.00167496 0 0)
(-0.00167495 0 0)
(-0.00167496 0 0)
(-0.00167495 0 0)
(-0.00167496 0 0)
(-0.00167495 0 0)
(-0.00167495 0 0)
(-0.00167495 0 0)
(-0.00167495 0 0)
(-0.00167495 0 0)
(-0.00167495 0 0)
(-0.00167495 0 0)
(-0.00167495 0 0)
(-0.00167495 0 0)
(-0.00167495 0 0)
(-0.00167495 0 0)
(-0.00167495 0 0)
(-0.00167495 0 0)
(-0.00167495 0 0)
(-0.00167495 0 0)
(-0.00167495 0 0)
(-0.00167495 0 0)
(-0.00167495 0 0)
(-0.00167495 0 0)
(-0.00167495 0 0)
(-0.00167495 0 0)
(-0.00167495 0 0)
(-0.00167495 0 0)
(-0.00167495 0 0)
(-0.00167495 0 0)
(-0.00167495 0 0)
(-0.00167495 0 0)
(-0.00167495 0 0)
(-0.00167495 0 0)
(-0.00167495 0 0)
(-0.00167495 0 0)
(-0.00167495 0 0)
(-0.00167495 0 0)
(-0.00167495 0 0)
(-0.00167495 0 0)
(-0.00167495 0 0)
(-0.00167495 0 0)
(-0.00167495 0 0)
(-0.00167496 0 0)
(-0.00167495 0 0)
(-0.00167496 0 0)
(-0.00167495 0 0)
(-0.00167495 0 0)
(-0.00167495 0 0)
(-0.00167496 0 0)
(-0.00167495 0 0)
(-0.00167496 0 0)
(-0.00167496 0 0)
(-0.00167495 0 0)
(-0.00167496 0 0)
(-0.00167495 0 0)
(-0.00167496 0 0)
(-0.00167495 0 0)
(-0.00167496 0 0)
(-0.00167495 0 0)
(-0.00167496 0 0)
(-0.00167495 0 0)
(-0.00167496 0 0)
(-0.00167495 0 0)
(-0.00167496 0 0)
(-0.00167495 0 0)
(-0.00167496 0 0)
(-0.00167496 0 0)
(-0.00167495 0 0)
(-0.00167496 0 0)
(-0.00167495 0 0)
(-0.00167496 0 0)
(-0.00167495 0 0)
(-0.00167496 0 0)
(-0.00167495 0 0)
(-0.00167495 0 0)
(-0.00167496 0 0)
(-0.00167495 0 0)
(-0.00167495 0 0)
(-0.00167495 0 0)
(-0.00167495 0 0)
(-0.00167495 0 0)
(-0.00167495 0 0)
(-0.00167495 0 0)
(-0.00167495 0 0)
(-0.00167495 0 0)
(-0.00167495 0 0)
(-0.00167495 0 0)
(-0.00167495 0 0)
(-0.00167495 0 0)
(-0.00167495 0 0)
(-0.00167495 0 0)
(-0.00167495 0 0)
(-0.00167494 0 0)
(-0.00167495 0 0)
(-0.00167494 0 0)
(-0.00167494 0 0)
(-0.00167494 0 0)
(-0.00167494 0 0)
(-0.00167494 0 0)
(-0.00167494 0 0)
(-0.00167494 0 0)
(-0.00167494 0 0)
(-0.00167494 0 0)
(-0.00167494 0 0)
(-0.00167494 0 0)
(-0.00167494 0 0)
(-0.00167493 0 0)
(-0.00167494 0 0)
(-0.00167493 0 0)
(-0.00167494 0 0)
(-0.00167493 0 0)
(-0.00167493 0 0)
(-0.00167493 0 0)
(-0.00167493 0 0)
(-0.00167493 0 0)
(-0.00167493 0 0)
(-0.00167493 0 0)
(-0.00167493 0 0)
(-0.00167493 0 0)
(-0.00167493 0 0)
(-0.00167492 0 0)
(-0.00167493 0 0)
(-0.00167493 0 0)
(-0.00167492 0 0)
(-0.00167493 0 0)
(-0.00167492 0 0)
(-0.00167493 0 0)
(-0.00167492 0 0)
(-0.00167492 0 0)
(-0.00167492 0 0)
(-0.00167492 0 0)
(-0.00167492 0 0)
(-0.00167492 0 0)
(-0.00167492 0 0)
(-0.00167492 0 0)
(-0.00167492 0 0)
(-0.00167492 0 0)
(-0.00167492 0 0)
(-0.00167492 0 0)
(-0.00167492 0 0)
(-0.00167492 0 0)
(-0.00167492 0 0)
(-0.00167492 0 0)
(-0.00167492 0 0)
(-0.00167492 0 0)
(-0.00167492 0 0)
(-0.00167492 0 0)
(-0.00167492 0 0)
(-0.00167492 0 0)
(-0.00167492 0 0)
(-0.00167492 0 0)
(-0.00167492 0 0)
(-0.00167492 0 0)
(-0.00167492 0 0)
(-0.00167492 0 0)
(-0.00167492 0 0)
(-0.00167492 0 0)
(-0.00167492 0 0)
(-0.00167492 0 0)
(-0.00167493 0 0)
(-0.00167492 0 0)
(-0.00167493 0 0)
(-0.00167493 0 0)
(-0.00167493 0 0)
(-0.00167493 0 0)
(-0.00167493 0 0)
(-0.00167493 0 0)
(-0.00167493 0 0)
(-0.00167493 0 0)
(-0.00167493 0 0)
(-0.00167494 0 0)
(-0.00167494 0 0)
(-0.00167494 0 0)
(-0.00167494 0 0)
(-0.00167494 0 0)
(-0.00167494 0 0)
(-0.00167495 0 0)
(-0.00167495 0 0)
(-0.00167495 0 0)
(-0.00167495 0 0)
(-0.00167495 0 0)
(-0.00167496 0 0)
(-0.00167496 0 0)
(-0.00167496 0 0)
(-0.00167496 0 0)
(-0.00167497 0 0)
(-0.00167497 0 0)
(-0.00167497 0 0)
(-0.00167498 0 0)
(-0.00167498 0 0)
(-0.00167499 0 0)
(-0.00167499 0 0)
(-0.001675 0 0)
(-0.001675 0 0)
(-0.00167501 0 0)
(-0.00167501 0 0)
(-0.00167502 0 0)
(-0.00167503 0 0)
(-0.00167503 0 0)
(-0.00167504 0 0)
(-0.00167505 0 0)
(-0.00167506 0 0)
(-0.00167507 0 0)
(-0.00167508 0 0)
(-0.00167509 0 0)
(-0.00167511 0 0)
(-0.00167512 0 0)
(-0.00167513 0 0)
(-0.00167515 0 0)
(-0.00167517 0 0)
(-0.00167519 0 0)
(-0.00167521 0 0)
(-0.00167523 0 0)
(-0.00167525 0 0)
(-0.00167528 0 0)
(-0.00167531 0 0)
(-0.00167534 0 0)
(-0.00167537 0 0)
(-0.0016754 0 0)
(-0.00167544 0 0)
(-0.00167548 0 0)
(-0.00167552 0 0)
(-0.00167557 0 0)
(-0.00167562 0 0)
(-0.00167568 0 0)
(-0.00167573 0 0)
(-0.0016758 0 0)
(-0.00167587 0 0)
(-0.00167594 0 0)
(-0.00167602 0 0)
(-0.0016761 0 0)
(-0.00167619 0 0)
(-0.00167629 0 0)
(-0.00167639 0 0)
(-0.0016765 0 0)
(-0.00167663 0 0)
(-0.00167675 0 0)
(-0.00167689 0 0)
(-0.00167704 0 0)
(-0.0016772 0 0)
(-0.00167737 0 0)
(-0.00167755 0 0)
(-0.00167774 0 0)
(-0.00167795 0 0)
(-0.00167817 0 0)
(-0.00167841 0 0)
(-0.00167866 0 0)
(-0.00167893 0 0)
(-0.00167922 0 0)
(-0.00167952 0 0)
(-0.00167985 0 0)
(-0.0016802 0 0)
(-0.00168057 0 0)
(-0.00168096 0 0)
(-0.00168138 0 0)
(-0.00168183 0 0)
(-0.0016823 0 0)
(-0.00168281 0 0)
(-0.00168334 0 0)
(-0.00168391 0 0)
(-0.00168452 0 0)
(-0.00168516 0 0)
(-0.00168584 0 0)
(-0.00168655 0 0)
(-0.00168732 0 0)
(-0.00168812 0 0)
(-0.00168898 0 0)
(-0.00168988 0 0)
(-0.00169084 0 0)
(-0.00169185 0 0)
(-0.00169292 0 0)
(-0.00169404 0 0)
(-0.00169523 0 0)
(-0.00169649 0 0)
(-0.00169782 0 0)
(-0.00169921 0 0)
(-0.00170068 0 0)
(-0.00170223 0 0)
(-0.00170386 0 0)
(-0.00170558 0 0)
(-0.00170739 0 0)
(-0.00170928 0 0)
(-0.00171128 0 0)
(-0.00171337 0 0)
(-0.00171557 0 0)
(-0.00171788 0 0)
(-0.00172031 0 0)
(-0.00172285 0 0)
(-0.00172551 0 0)
(-0.00172829 0 0)
(-0.00173121 0 0)
(-0.00173427 0 0)
(-0.00173746 0 0)
(-0.0017408 0 0)
(-0.00174429 0 0)
(-0.00174794 0 0)
(-0.00175175 0 0)
(-0.00175572 0 0)
(-0.00175986 0 0)
(-0.00176418 0 0)
(-0.00176869 0 0)
(-0.00177338 0 0)
(-0.00177826 0 0)
(-0.00178334 0 0)
(-0.00178863 0 0)
(-0.00179412 0 0)
(-0.00179983 0 0)
(-0.00180576 0 0)
(-0.00181192 0 0)
(-0.0018183 0 0)
(-0.00182493 0 0)
(-0.0018318 0 0)
(-0.00183891 0 0)
(-0.00184628 0 0)
(-0.00185391 0 0)
(-0.0018618 0 0)
(-0.00186996 0 0)
(-0.0018784 0 0)
(-0.00188711 0 0)
(-0.0018961 0 0)
(-0.00190539 0 0)
(-0.00191496 0 0)
(-0.00192484 0 0)
(-0.00193501 0 0)
(-0.00194549 0 0)
(-0.00195627 0 0)
(-0.00196737 0 0)
(-0.00197878 0 0)
(-0.0019905 0 0)
(-0.00200255 0 0)
(-0.00201491 0 0)
(-0.0020276 0 0)
(-0.00204062 0 0)
(-0.00205395 0 0)
(-0.00206762 0 0)
(-0.0020816 0 0)
(-0.00209592 0 0)
(-0.00211056 0 0)
(-0.00212552 0 0)
(-0.0021408 0 0)
(-0.0021564 0 0)
(-0.00217232 0 0)
(-0.00218855 0 0)
(-0.00220508 0 0)
(-0.00222192 0 0)
(-0.00223906 0 0)
(-0.00225649 0 0)
(-0.00227421 0 0)
(-0.0022922 0 0)
(-0.00231047 0 0)
(-0.00232899 0 0)
(-0.00234776 0 0)
(-0.00236678 0 0)
(-0.00238602 0 0)
(-0.00240548 0 0)
(-0.00242514 0 0)
(-0.00244498 0 0)
(-0.002465 0 0)
(-0.00248518 0 0)
(-0.0025055 0 0)
(-0.00252594 0 0)
(-0.00254648 0 0)
(-0.0025671 0 0)
(-0.00258778 0 0)
(-0.0026085 0 0)
(-0.00262923 0 0)
(-0.00264995 0 0)
(-0.00267063 0 0)
(-0.00269125 0 0)
(-0.00271177 0 0)
(-0.00273216 0 0)
(-0.00275239 0 0)
(-0.00277244 0 0)
(-0.00279225 0 0)
(-0.00281181 0 0)
(-0.00283106 0 0)
(-0.00284996 0 0)
(-0.00286849 0 0)
(-0.00288658 0 0)
(-0.0029042 0 0)
(-0.00292129 0 0)
(-0.00293781 0 0)
(-0.00295369 0 0)
(-0.0029689 0 0)
(-0.00298337 0 0)
(-0.00299704 0 0)
(-0.00300988 0 0)
(-0.00302183 0 0)
(-0.00303282 0 0)
(-0.00304269 0 0)
(-0.00305135 0 0)
(-0.00305876 0 0)
(-0.00306491 0 0)
(-0.00306972 0 0)
(-0.0030731 0 0)
(-0.00307484 0 0)
(-0.00307493 0 0)
(-0.00307321 0 0)
(-0.00306954 0 0)
(-0.00306385 0 0)
(-0.00305597 0 0)
(-0.0030458 0 0)
(-0.00303317 0 0)
(-0.00301795 0 0)
(-0.00299998 0 0)
(-0.0029791 0 0)
(-0.00295514 0 0)
(-0.00292792 0 0)
(-0.00289727 0 0)
(-0.00286299 0 0)
(-0.0028249 0 0)
(-0.0027828 0 0)
(-0.00273651 0 0)
(-0.00268583 0 0)
(-0.0026306 0 0)
(-0.00257062 0 0)
(-0.00250575 0 0)
(-0.00243581 0 0)
(-0.00236084 0 0)
(-0.00228107 0 0)
(-0.00219647 0 0)
(-0.00210357 0 0)
(-0.00199471 0 0)
(-0.00188706 0 0)
)
;

boundaryField
{
    fixedWall
    {
        type            fixedValue;
        value           uniform (0 0 0);
    }
    outlet
    {
        type            pressureInletOutletVelocity;
        value           uniform (-0.00188706 0 0);
    }
    defaultFaces
    {
        type            empty;
    }
}


// ************************************************************************* //
