/*--------------------------------*- C++ -*----------------------------------*\
| =========                 |                                                 |
| \\      /  F ield         | OpenFOAM: The Open Source CFD Toolbox           |
|  \\    /   O peration     | Version:  2406                                  |
|   \\  /    A nd           | Website:  www.openfoam.com                      |
|    \\/     M anipulation  |                                                 |
\*---------------------------------------------------------------------------*/
FoamFile
{
    version     2.0;
    format      ascii;
    arch        "LSB;label=32;scalar=64";
    class       volScalarField;
    location    "11.8";
    object      O2;
}
// * * * * * * * * * * * * * * * * * * * * * * * * * * * * * * * * * * * * * //

dimensions      [0 0 0 0 0 0 0];

internalField   nonuniform List<scalar> 
1000
(
1.08187e-06
1.08022e-06
1.07721e-06
1.07305e-06
1.06789e-06
1.06187e-06
1.05509e-06
1.04762e-06
1.03955e-06
1.03093e-06
1.02181e-06
1.01225e-06
1.00228e-06
9.9195e-07
9.81282e-07
9.70312e-07
9.59067e-07
9.47573e-07
9.35854e-07
9.23933e-07
9.11831e-07
8.99567e-07
8.87161e-07
8.74629e-07
8.61988e-07
8.49254e-07
8.36443e-07
8.23569e-07
8.10646e-07
7.97689e-07
7.8471e-07
7.71721e-07
7.58737e-07
7.45768e-07
7.32828e-07
7.19926e-07
7.07075e-07
6.94285e-07
6.81567e-07
6.68932e-07
6.5639e-07
6.43949e-07
6.3162e-07
6.19411e-07
6.07331e-07
5.95389e-07
5.83592e-07
5.71947e-07
5.60462e-07
5.49142e-07
5.37995e-07
5.27025e-07
5.16238e-07
5.05638e-07
4.9523e-07
4.85017e-07
4.75003e-07
4.65191e-07
4.55582e-07
4.4618e-07
4.36984e-07
4.27997e-07
4.1922e-07
4.10652e-07
4.02293e-07
3.94143e-07
3.86202e-07
3.78468e-07
3.7094e-07
3.63616e-07
3.56495e-07
3.49575e-07
3.42852e-07
3.36325e-07
3.2999e-07
3.23846e-07
3.17888e-07
3.12114e-07
3.06521e-07
3.01104e-07
2.95861e-07
2.90789e-07
2.85882e-07
2.81139e-07
2.76554e-07
2.72125e-07
2.67848e-07
2.63719e-07
2.59733e-07
2.55889e-07
2.52181e-07
2.48606e-07
2.4516e-07
2.4184e-07
2.38643e-07
2.35564e-07
2.326e-07
2.29748e-07
2.27005e-07
2.24366e-07
2.21829e-07
2.19391e-07
2.17048e-07
2.14798e-07
2.12637e-07
2.10562e-07
2.08571e-07
2.06661e-07
2.04829e-07
2.03072e-07
2.01388e-07
1.99774e-07
1.98229e-07
1.96748e-07
1.95331e-07
1.93974e-07
1.92677e-07
1.91435e-07
1.90249e-07
1.89114e-07
1.88031e-07
1.86996e-07
1.86008e-07
1.85065e-07
1.84165e-07
1.83307e-07
1.82489e-07
1.8171e-07
1.80968e-07
1.80262e-07
1.7959e-07
1.78951e-07
1.78344e-07
1.77767e-07
1.7722e-07
1.767e-07
1.76208e-07
1.75741e-07
1.75299e-07
1.74881e-07
1.74486e-07
1.74112e-07
1.7376e-07
1.73428e-07
1.73115e-07
1.72821e-07
1.72544e-07
1.72285e-07
1.72042e-07
1.71814e-07
1.71601e-07
1.71403e-07
1.71219e-07
1.71047e-07
1.70888e-07
1.70742e-07
1.70606e-07
1.70482e-07
1.70368e-07
1.70265e-07
1.70171e-07
1.70086e-07
1.7001e-07
1.69943e-07
1.69883e-07
1.69832e-07
1.69788e-07
1.6975e-07
1.6972e-07
1.69696e-07
1.69678e-07
1.69666e-07
1.69659e-07
1.69658e-07
1.69662e-07
1.69671e-07
1.69685e-07
1.69703e-07
1.69725e-07
1.69751e-07
1.69781e-07
1.69815e-07
1.69852e-07
1.69893e-07
1.69937e-07
1.69984e-07
1.70034e-07
1.70086e-07
1.70142e-07
1.70199e-07
1.7026e-07
1.70322e-07
1.70387e-07
1.70453e-07
1.70522e-07
1.70593e-07
1.70665e-07
1.70739e-07
1.70815e-07
1.70892e-07
1.70971e-07
1.71051e-07
1.71133e-07
1.71216e-07
1.713e-07
1.71385e-07
1.71472e-07
1.71559e-07
1.71648e-07
1.71737e-07
1.71828e-07
1.71919e-07
1.72011e-07
1.72104e-07
1.72198e-07
1.72292e-07
1.72387e-07
1.72483e-07
1.72579e-07
1.72676e-07
1.72773e-07
1.72872e-07
1.7297e-07
1.73069e-07
1.73169e-07
1.73269e-07
1.73369e-07
1.7347e-07
1.73571e-07
1.73673e-07
1.73775e-07
1.73878e-07
1.7398e-07
1.74083e-07
1.74187e-07
1.7429e-07
1.74394e-07
1.74498e-07
1.74603e-07
1.74708e-07
1.74813e-07
1.74918e-07
1.75023e-07
1.75129e-07
1.75235e-07
1.75341e-07
1.75447e-07
1.75554e-07
1.7566e-07
1.75767e-07
1.75874e-07
1.75981e-07
1.76089e-07
1.76196e-07
1.76304e-07
1.76412e-07
1.7652e-07
1.76628e-07
1.76736e-07
1.76845e-07
1.76953e-07
1.77062e-07
1.77171e-07
1.7728e-07
1.77389e-07
1.77498e-07
1.77607e-07
1.77717e-07
1.77826e-07
1.77936e-07
1.78046e-07
1.78155e-07
1.78265e-07
1.78376e-07
1.78486e-07
1.78596e-07
1.78707e-07
1.78818e-07
1.78928e-07
1.79039e-07
1.7915e-07
1.79261e-07
1.79373e-07
1.79484e-07
1.79595e-07
1.79707e-07
1.79818e-07
1.7993e-07
1.80042e-07
1.80154e-07
1.80266e-07
1.80378e-07
1.80491e-07
1.80603e-07
1.80715e-07
1.80828e-07
1.80941e-07
1.81053e-07
1.81166e-07
1.81279e-07
1.81392e-07
1.81505e-07
1.81619e-07
1.81732e-07
1.81846e-07
1.8196e-07
1.82074e-07
1.82187e-07
1.82301e-07
1.82416e-07
1.8253e-07
1.82644e-07
1.82759e-07
1.82874e-07
1.82988e-07
1.83103e-07
1.83218e-07
1.83333e-07
1.83449e-07
1.83564e-07
1.8368e-07
1.83795e-07
1.83911e-07
1.84027e-07
1.84143e-07
1.84259e-07
1.84376e-07
1.84492e-07
1.84608e-07
1.84725e-07
1.84842e-07
1.84959e-07
1.85076e-07
1.85193e-07
1.85311e-07
1.85428e-07
1.85546e-07
1.85664e-07
1.85782e-07
1.859e-07
1.86018e-07
1.86136e-07
1.86255e-07
1.86374e-07
1.86492e-07
1.86611e-07
1.8673e-07
1.8685e-07
1.86969e-07
1.87088e-07
1.87208e-07
1.87328e-07
1.87448e-07
1.87568e-07
1.87688e-07
1.87809e-07
1.87929e-07
1.8805e-07
1.88171e-07
1.88292e-07
1.88413e-07
1.88535e-07
1.88656e-07
1.88778e-07
1.889e-07
1.89022e-07
1.89144e-07
1.89266e-07
1.89389e-07
1.89512e-07
1.89634e-07
1.89757e-07
1.89881e-07
1.90004e-07
1.90127e-07
1.90251e-07
1.90375e-07
1.90499e-07
1.90623e-07
1.90747e-07
1.90872e-07
1.90997e-07
1.91121e-07
1.91246e-07
1.91372e-07
1.91497e-07
1.91622e-07
1.91748e-07
1.91874e-07
1.92e-07
1.92126e-07
1.92253e-07
1.92379e-07
1.92506e-07
1.92633e-07
1.9276e-07
1.92887e-07
1.93014e-07
1.93142e-07
1.9327e-07
1.93398e-07
1.93526e-07
1.93654e-07
1.93783e-07
1.93911e-07
1.9404e-07
1.94169e-07
1.94298e-07
1.94428e-07
1.94557e-07
1.94687e-07
1.94817e-07
1.94947e-07
1.95077e-07
1.95207e-07
1.95338e-07
1.95469e-07
1.956e-07
1.95731e-07
1.95862e-07
1.95994e-07
1.96125e-07
1.96257e-07
1.96389e-07
1.96522e-07
1.96653e-07
1.96786e-07
1.96919e-07
1.97052e-07
1.97185e-07
1.97318e-07
1.97452e-07
1.97585e-07
1.97719e-07
1.97853e-07
1.97987e-07
1.98122e-07
1.98256e-07
1.98391e-07
1.98526e-07
1.98661e-07
1.98796e-07
1.98932e-07
1.99067e-07
1.99203e-07
1.99339e-07
1.99475e-07
1.99612e-07
1.99748e-07
1.99885e-07
2.00022e-07
2.00159e-07
2.00296e-07
2.00434e-07
2.00572e-07
2.0071e-07
2.00848e-07
2.00986e-07
2.01124e-07
2.01263e-07
2.01402e-07
2.01541e-07
2.0168e-07
2.01819e-07
2.01959e-07
2.02099e-07
2.02239e-07
2.02379e-07
2.02519e-07
2.0266e-07
2.02801e-07
2.02942e-07
2.03083e-07
2.03224e-07
2.03366e-07
2.03507e-07
2.03649e-07
2.03792e-07
2.03934e-07
2.04076e-07
2.04219e-07
2.04362e-07
2.04505e-07
2.04649e-07
2.04792e-07
2.04936e-07
2.0508e-07
2.05224e-07
2.05368e-07
2.05513e-07
2.05658e-07
2.05803e-07
2.05948e-07
2.06093e-07
2.06239e-07
2.06385e-07
2.06531e-07
2.06677e-07
2.06823e-07
2.0697e-07
2.07117e-07
2.07264e-07
2.07411e-07
2.07559e-07
2.07706e-07
2.07854e-07
2.08002e-07
2.08151e-07
2.08299e-07
2.08448e-07
2.08597e-07
2.08746e-07
2.08895e-07
2.09045e-07
2.09195e-07
2.09345e-07
2.09495e-07
2.09646e-07
2.09796e-07
2.09947e-07
2.10098e-07
2.1025e-07
2.10401e-07
2.10553e-07
2.10705e-07
2.10857e-07
2.1101e-07
2.11162e-07
2.11315e-07
2.11468e-07
2.11622e-07
2.11775e-07
2.11929e-07
2.12083e-07
2.12237e-07
2.12392e-07
2.12546e-07
2.12701e-07
2.12856e-07
2.13011e-07
2.13167e-07
2.13323e-07
2.13479e-07
2.13635e-07
2.13791e-07
2.13948e-07
2.14105e-07
2.14262e-07
2.14419e-07
2.14577e-07
2.14735e-07
2.14893e-07
2.15051e-07
2.1521e-07
2.15368e-07
2.15527e-07
2.15687e-07
2.15846e-07
2.16006e-07
2.16165e-07
2.16326e-07
2.16486e-07
2.16647e-07
2.16807e-07
2.16968e-07
2.1713e-07
2.17291e-07
2.17453e-07
2.17615e-07
2.17777e-07
2.1794e-07
2.18103e-07
2.18265e-07
2.18429e-07
2.18592e-07
2.18756e-07
2.1892e-07
2.19084e-07
2.19248e-07
2.19413e-07
2.19578e-07
2.19743e-07
2.19909e-07
2.20074e-07
2.2024e-07
2.20406e-07
2.20573e-07
2.20739e-07
2.20906e-07
2.21074e-07
2.21241e-07
2.21409e-07
2.21577e-07
2.21745e-07
2.21913e-07
2.22082e-07
2.22251e-07
2.2242e-07
2.2259e-07
2.22759e-07
2.22929e-07
2.231e-07
2.2327e-07
2.23441e-07
2.23612e-07
2.23783e-07
2.23955e-07
2.24127e-07
2.24299e-07
2.24471e-07
2.24644e-07
2.24817e-07
2.2499e-07
2.25164e-07
2.25338e-07
2.25512e-07
2.25686e-07
2.2586e-07
2.26035e-07
2.2621e-07
2.26386e-07
2.26562e-07
2.26737e-07
2.26913e-07
2.27089e-07
2.27266e-07
2.27443e-07
2.2762e-07
2.27798e-07
2.27976e-07
2.28154e-07
2.28333e-07
2.28512e-07
2.28691e-07
2.2887e-07
2.2905e-07
2.2923e-07
2.2941e-07
2.29591e-07
2.29771e-07
2.29952e-07
2.30134e-07
2.30316e-07
2.30498e-07
2.3068e-07
2.30862e-07
2.31045e-07
2.31228e-07
2.31412e-07
2.31596e-07
2.3178e-07
2.31964e-07
2.32149e-07
2.32333e-07
2.32519e-07
2.32704e-07
2.3289e-07
2.33076e-07
2.33262e-07
2.33449e-07
2.33636e-07
2.33823e-07
2.34011e-07
2.34199e-07
2.34387e-07
2.34575e-07
2.34764e-07
2.34953e-07
2.35142e-07
2.35331e-07
2.35521e-07
2.35711e-07
2.35901e-07
2.36092e-07
2.36283e-07
2.36475e-07
2.36666e-07
2.36858e-07
2.37051e-07
2.37243e-07
2.37436e-07
2.37629e-07
2.37823e-07
2.38016e-07
2.38211e-07
2.38405e-07
2.386e-07
2.38795e-07
2.3899e-07
2.39186e-07
2.39382e-07
2.39578e-07
2.39774e-07
2.39971e-07
2.40169e-07
2.40366e-07
2.40564e-07
2.40762e-07
2.4096e-07
2.41159e-07
2.41358e-07
2.41558e-07
2.41757e-07
2.41957e-07
2.42158e-07
2.42358e-07
2.4256e-07
2.42761e-07
2.42963e-07
2.43165e-07
2.43367e-07
2.4357e-07
2.43773e-07
2.43976e-07
2.4418e-07
2.44384e-07
2.44588e-07
2.44793e-07
2.44998e-07
2.45203e-07
2.45409e-07
2.45615e-07
2.45822e-07
2.46029e-07
2.46236e-07
2.46444e-07
2.46651e-07
2.46859e-07
2.47067e-07
2.47276e-07
2.47485e-07
2.47695e-07
2.47905e-07
2.48116e-07
2.48326e-07
2.48538e-07
2.48748e-07
2.48959e-07
2.49171e-07
2.49384e-07
2.49597e-07
2.4981e-07
2.50024e-07
2.50238e-07
2.50453e-07
2.50668e-07
2.50883e-07
2.51099e-07
2.51315e-07
2.51531e-07
2.51748e-07
2.51965e-07
2.52183e-07
2.52401e-07
2.5262e-07
2.52838e-07
2.53058e-07
2.53277e-07
2.53498e-07
2.53718e-07
2.53939e-07
2.54161e-07
2.54382e-07
2.54605e-07
2.54827e-07
2.5505e-07
2.55274e-07
2.55498e-07
2.55722e-07
2.55947e-07
2.56173e-07
2.56398e-07
2.56625e-07
2.56851e-07
2.57078e-07
2.57306e-07
2.57534e-07
2.57763e-07
2.57992e-07
2.58222e-07
2.58452e-07
2.58683e-07
2.58914e-07
2.59146e-07
2.59378e-07
2.59611e-07
2.59844e-07
2.60079e-07
2.60313e-07
2.60549e-07
2.60785e-07
2.61022e-07
2.61259e-07
2.61497e-07
2.61736e-07
2.61976e-07
2.62217e-07
2.62458e-07
2.627e-07
2.62944e-07
2.63188e-07
2.63433e-07
2.6368e-07
2.63927e-07
2.64176e-07
2.64426e-07
2.64677e-07
2.6493e-07
2.65184e-07
2.6544e-07
2.65698e-07
2.65957e-07
2.66218e-07
2.66482e-07
2.66747e-07
2.67014e-07
2.67284e-07
2.67557e-07
2.67832e-07
2.6811e-07
2.68391e-07
2.68676e-07
2.68963e-07
2.69255e-07
2.69551e-07
2.6985e-07
2.70154e-07
2.70463e-07
2.70778e-07
2.71097e-07
2.71422e-07
2.71754e-07
2.72092e-07
2.72437e-07
2.72789e-07
2.7315e-07
2.73519e-07
2.73897e-07
2.74284e-07
2.74682e-07
2.75091e-07
2.75511e-07
2.75944e-07
2.7639e-07
2.7685e-07
2.77325e-07
2.77815e-07
2.78323e-07
2.78848e-07
2.79392e-07
2.79956e-07
2.80542e-07
2.81151e-07
2.81783e-07
2.82441e-07
2.83127e-07
2.83841e-07
2.84585e-07
2.85362e-07
2.86173e-07
2.8702e-07
2.87906e-07
2.88832e-07
2.89801e-07
2.90815e-07
2.91877e-07
2.9299e-07
2.94156e-07
2.95379e-07
2.96661e-07
2.98006e-07
2.99417e-07
3.00899e-07
3.02453e-07
3.04086e-07
3.05799e-07
3.07599e-07
3.09489e-07
3.11474e-07
3.13559e-07
3.15749e-07
3.18049e-07
3.20464e-07
3.23001e-07
3.25665e-07
3.28462e-07
3.31398e-07
3.34481e-07
3.37717e-07
3.41113e-07
3.44676e-07
3.48414e-07
3.52334e-07
3.56444e-07
3.60753e-07
3.65269e-07
3.70001e-07
3.74957e-07
3.80147e-07
3.85579e-07
3.91263e-07
3.97208e-07
4.03425e-07
4.09923e-07
4.16713e-07
4.23803e-07
4.31204e-07
4.38927e-07
4.46981e-07
4.55376e-07
4.64123e-07
4.73231e-07
4.82709e-07
4.92567e-07
5.02814e-07
5.13459e-07
5.24509e-07
5.35973e-07
5.47856e-07
5.60165e-07
5.72906e-07
5.86082e-07
5.99697e-07
6.13752e-07
6.28249e-07
6.43186e-07
6.5856e-07
6.74367e-07
6.90601e-07
7.07253e-07
7.24311e-07
7.41762e-07
7.5959e-07
7.77776e-07
7.96297e-07
8.15129e-07
8.34241e-07
8.53601e-07
8.73174e-07
8.92919e-07
9.12792e-07
9.32746e-07
9.52727e-07
9.72679e-07
9.92543e-07
1.01225e-06
1.03174e-06
1.05093e-06
1.06976e-06
1.08813e-06
1.10597e-06
1.12319e-06
1.1397e-06
1.15541e-06
1.17023e-06
1.18407e-06
1.19683e-06
1.20841e-06
1.21872e-06
1.22767e-06
1.23517e-06
1.24111e-06
1.24543e-06
1.24801e-06
1.24879e-06
1.24771e-06
1.24467e-06
1.23962e-06
1.23248e-06
1.2232e-06
1.21173e-06
1.19802e-06
1.18203e-06
1.16373e-06
1.1431e-06
1.12011e-06
1.09476e-06
1.06705e-06
1.03698e-06
1.00456e-06
9.69839e-07
9.32836e-07
8.93605e-07
8.52209e-07
8.08722e-07
7.63235e-07
7.15856e-07
6.66712e-07
6.1595e-07
5.63742e-07
5.10284e-07
4.55804e-07
4.00562e-07
3.44856e-07
2.89025e-07
2.33455e-07
1.7858e-07
1.24892e-07
7.29356e-08
2.33134e-08
)
;

boundaryField
{
    fixedWall
    {
        type            zeroGradient;
    }
    outlet
    {
        type            inletOutlet;
        inletValue      uniform 0;
        value           uniform 0;
    }
    defaultFaces
    {
        type            empty;
    }
}


// ************************************************************************* //
