/*--------------------------------*- C++ -*----------------------------------*\
| =========                 |                                                 |
| \\      /  F ield         | OpenFOAM: The Open Source CFD Toolbox           |
|  \\    /   O peration     | Version:  2406                                  |
|   \\  /    A nd           | Website:  www.openfoam.com                      |
|    \\/     M anipulation  |                                                 |
\*---------------------------------------------------------------------------*/
FoamFile
{
    version     2.0;
    format      ascii;
    arch        "LSB;label=32;scalar=64";
    class       volScalarField;
    location    "11.8";
    object      Qdot;
}
// * * * * * * * * * * * * * * * * * * * * * * * * * * * * * * * * * * * * * //

dimensions      [1 -1 -3 0 0 0 0];

internalField   nonuniform List<scalar> 
1000
(
-8.94336e-19
-1.934e-17
-2.34092e-16
-1.85468e-15
5.9021e-09
1.76502e-08
8.61298e-08
2.5945e-07
7.26615e-07
1.78327e-06
4.00048e-06
8.30037e-06
1.60841e-05
2.93719e-05
5.09351e-05
8.43893e-05
0.000134283
0.000206128
0.000306392
0.0004424
0.000622289
0.000854771
0.00114898
0.00151421
0.00195972
0.00249436
0.00312646
0.00386345
0.00471168
0.00567624
0.0067608
0.00796741
0.00929652
0.0107468
0.0123155
0.0139978
0.0157876
0.0176773
0.0196581
0.0217197
0.0238513
0.026041
0.0282764
0.0305448
0.0328333
0.035129
0.0374193
0.0396917
0.0419346
0.0441367
0.0462876
0.0483777
0.0503985
0.0523421
0.0542018
0.055972
0.0576478
0.0592257
0.0607028
0.0620773
0.0633481
0.0645151
0.0655789
0.0665407
0.0674024
0.0681663
0.0688355
0.0694131
0.0699028
0.0703086
0.0706345
0.0708849
0.0710642
0.071177
0.0712276
0.0712206
0.0711605
0.0710517
0.0708983
0.0707046
0.0704746
0.0702121
0.0699207
0.0696041
0.0692655
0.068908
0.0685347
0.0681482
0.0677511
0.0673459
0.0669347
0.0665196
0.0661025
0.065685
0.0652688
0.0648553
0.0644457
0.0640411
0.0636426
0.0632512
0.0628675
0.0624922
0.0621261
0.0617695
0.0614229
0.0610867
0.0607611
0.0604464
0.0601427
0.0598501
0.0595687
0.0592985
0.0590395
0.0587917
0.0585548
0.0583289
0.0581138
0.0579093
0.0577152
0.0575314
0.0573576
0.0571937
0.0570393
0.0568943
0.0567583
0.0566312
0.0565127
0.0564025
0.0563004
0.0562061
0.0561193
0.0560398
0.0559674
0.0559018
0.0558427
0.0557899
0.0557431
0.0557022
0.0556668
0.0556368
0.055612
0.0555921
0.0555769
0.0555662
0.0555598
0.0555575
0.0555592
0.0555647
0.0555737
0.0555862
0.0556019
0.0556207
0.0556425
0.055667
0.0556943
0.0557241
0.0557563
0.0557908
0.0558274
0.0558661
0.0559068
0.0559493
0.0559936
0.0560395
0.056087
0.056136
0.0561864
0.0562381
0.056291
0.056345
0.0564002
0.0564563
0.0565134
0.0565717
0.0566308
0.0566908
0.0567515
0.056813
0.0568752
0.0569381
0.0570015
0.0570656
0.0571302
0.0571954
0.057261
0.057327
0.0573936
0.0574605
0.0575278
0.0575955
0.0576635
0.0577318
0.0578004
0.0578693
0.0579382
0.0580077
0.0580774
0.0581474
0.0582175
0.0582879
0.0583584
0.0584289
0.0584995
0.0585707
0.058642
0.0587134
0.058785
0.0588568
0.0589286
0.0590006
0.0590727
0.059145
0.0592174
0.0592898
0.0593624
0.0594352
0.059508
0.0595809
0.059654
0.0597271
0.0598004
0.0598738
0.0599472
0.0600208
0.0600945
0.0601683
0.0602421
0.0603161
0.0603902
0.0604644
0.0605387
0.060613
0.0606875
0.0607621
0.0608368
0.0609116
0.0609865
0.0610615
0.0611364
0.0612116
0.0612869
0.0613623
0.0614378
0.0615134
0.0615891
0.0616649
0.0617408
0.0618169
0.061893
0.0619692
0.0620456
0.0621221
0.0621986
0.0622753
0.0623521
0.0624291
0.0625061
0.0625833
0.0626602
0.0627376
0.0628151
0.0628927
0.0629705
0.0630483
0.0631262
0.0632043
0.0632825
0.0633608
0.0634392
0.0635175
0.0635958
0.0636747
0.0637537
0.0638327
0.0639119
0.0639912
0.0640707
0.0641502
0.0642299
0.0643097
0.0643897
0.0644697
0.0645497
0.06463
0.0647105
0.064791
0.0648717
0.0649526
0.0650335
0.0651146
0.0651958
0.0652772
0.0653586
0.0654403
0.065522
0.0656039
0.065686
0.0657678
0.0658497
0.0659321
0.0660147
0.0660974
0.0661803
0.0662633
0.0663464
0.0664297
0.0665131
0.0665967
0.0666803
0.0667642
0.0668481
0.0669323
0.0670165
0.067101
0.0671856
0.0672703
0.0673552
0.0674402
0.0675254
0.0676107
0.0676962
0.0677819
0.0678677
0.0679536
0.0680397
0.068126
0.0682124
0.0682989
0.0683856
0.0684725
0.0685595
0.0686467
0.0687341
0.0688216
0.0689093
0.0689971
0.0690851
0.0691733
0.0692616
0.0693501
0.0694388
0.0695276
0.0696166
0.0697058
0.0697952
0.0698847
0.0699744
0.070064
0.070154
0.0702442
0.0703346
0.0704252
0.0705159
0.0706068
0.0706976
0.0707889
0.0708803
0.0709719
0.0710637
0.0711556
0.0712478
0.0713401
0.0714325
0.0715252
0.071618
0.071711
0.0718042
0.0718976
0.0719912
0.0720849
0.0721788
0.0722729
0.0723672
0.0724617
0.0725564
0.0726513
0.0727464
0.0728416
0.072937
0.0730327
0.0731285
0.0732245
0.0733207
0.073417
0.0735136
0.0736104
0.0737073
0.0738045
0.0739018
0.0739994
0.0740971
0.074195
0.0742932
0.0743915
0.07449
0.0745888
0.0746877
0.0747868
0.0748861
0.0749857
0.0750854
0.0751853
0.0752855
0.0753858
0.0754863
0.075587
0.0756879
0.0757891
0.0758904
0.0759919
0.0760937
0.0761957
0.0762978
0.0764002
0.0765027
0.0766055
0.0767085
0.0768117
0.0769151
0.0770187
0.0771225
0.0772265
0.0773308
0.0774352
0.0775399
0.0776448
0.0777498
0.0778551
0.0779606
0.0780663
0.0781723
0.0782784
0.0783848
0.0784914
0.0785981
0.0787052
0.0788124
0.0789198
0.0790275
0.0791353
0.0792434
0.0793518
0.0794603
0.0795691
0.079678
0.0797873
0.0798967
0.0800063
0.0801162
0.0802263
0.0803366
0.0804472
0.080558
0.080669
0.0807802
0.0808917
0.0810034
0.0811153
0.0812275
0.0813398
0.0814525
0.0815653
0.0816784
0.0817917
0.0819053
0.0820191
0.0821331
0.0822474
0.0823619
0.0824766
0.0825916
0.0827068
0.0828223
0.082938
0.0830539
0.0831701
0.0832865
0.0834032
0.0835201
0.0836373
0.0837547
0.0838724
0.0839903
0.0841085
0.0842269
0.0843455
0.0844644
0.0845836
0.084703
0.0848227
0.0849426
0.0850628
0.0851832
0.0853039
0.0854249
0.0855461
0.0856675
0.0857892
0.0859112
0.0860335
0.086156
0.0862788
0.0864018
0.0865251
0.0866487
0.0867725
0.0868966
0.0870209
0.0871456
0.0872705
0.0873956
0.0875211
0.0876468
0.0877728
0.087899
0.0880256
0.0881524
0.0882794
0.0884068
0.0885344
0.0886623
0.0887905
0.0889189
0.0890476
0.0891766
0.0893059
0.0894355
0.0895654
0.0896955
0.089826
0.0899567
0.0900877
0.0902189
0.0903505
0.0904824
0.0906145
0.0907469
0.0908797
0.0910127
0.091146
0.0912796
0.0914135
0.0915476
0.0916821
0.0918169
0.0919519
0.0920872
0.0922229
0.0923588
0.0924951
0.0926316
0.0927685
0.0929056
0.0930431
0.0931808
0.0933189
0.0934573
0.0935959
0.0937349
0.0938742
0.0940138
0.0941537
0.0942939
0.0944344
0.0945753
0.0947164
0.0948579
0.0949997
0.0951418
0.0952842
0.0954269
0.0955699
0.0957133
0.095857
0.096001
0.0961453
0.09629
0.096435
0.0965803
0.0967259
0.0968719
0.0970182
0.0971648
0.0973117
0.097459
0.0976067
0.0977546
0.0979029
0.0980515
0.0982005
0.0983498
0.0984995
0.0986495
0.0987998
0.0989505
0.0991015
0.0992529
0.0994046
0.0995567
0.0997091
0.0998619
0.100015
0.100168
0.100322
0.100477
0.100631
0.100786
0.100941
0.101097
0.101253
0.101409
0.101566
0.101723
0.10188
0.102038
0.102196
0.102355
0.102514
0.102673
0.102833
0.102993
0.103153
0.103314
0.103474
0.103636
0.103798
0.10396
0.104123
0.104286
0.10445
0.104613
0.104778
0.104942
0.105108
0.105273
0.105439
0.105605
0.105772
0.105939
0.106106
0.106274
0.106442
0.106611
0.10678
0.10695
0.10712
0.10729
0.107461
0.107632
0.107803
0.107975
0.108147
0.10832
0.108493
0.108667
0.108841
0.109015
0.10919
0.109365
0.109541
0.109717
0.109894
0.110071
0.110248
0.110426
0.110604
0.110783
0.110962
0.111141
0.11132
0.1115
0.111681
0.111862
0.112044
0.112226
0.112408
0.112591
0.112775
0.112958
0.113143
0.113327
0.113513
0.113698
0.113884
0.114071
0.114258
0.114445
0.114633
0.114821
0.11501
0.115199
0.115389
0.115579
0.11577
0.115961
0.116152
0.116344
0.116537
0.116729
0.116923
0.117117
0.117311
0.117506
0.117701
0.117897
0.118093
0.11829
0.118487
0.118685
0.118883
0.119082
0.119281
0.119481
0.119681
0.119882
0.120083
0.120285
0.120487
0.12069
0.120893
0.121097
0.121301
0.121506
0.121711
0.121917
0.122123
0.12233
0.122538
0.122745
0.122953
0.123162
0.123372
0.123582
0.123792
0.124003
0.124215
0.124427
0.124639
0.124852
0.125066
0.12528
0.125495
0.125711
0.125927
0.126144
0.126361
0.126579
0.126797
0.127016
0.127236
0.127456
0.127676
0.127898
0.128119
0.128342
0.128565
0.128788
0.129013
0.129237
0.129463
0.129689
0.129915
0.130143
0.13037
0.130599
0.130828
0.131057
0.131287
0.131518
0.131749
0.131981
0.132214
0.132447
0.132681
0.132915
0.13315
0.133386
0.133622
0.133859
0.134096
0.134334
0.134573
0.134812
0.135052
0.135293
0.135534
0.135775
0.136018
0.136261
0.136504
0.136748
0.136993
0.137238
0.137484
0.137731
0.137978
0.138226
0.138474
0.138723
0.138973
0.139223
0.139474
0.139726
0.139978
0.140231
0.140485
0.140739
0.140994
0.14125
0.141506
0.141763
0.142021
0.14228
0.142539
0.1428
0.143061
0.143323
0.143586
0.143851
0.144116
0.144382
0.144649
0.144918
0.145188
0.145459
0.145732
0.146006
0.146282
0.14656
0.146839
0.147121
0.147405
0.147691
0.147979
0.148271
0.148565
0.148862
0.149163
0.149467
0.149775
0.150088
0.150405
0.150726
0.151054
0.151386
0.151725
0.152071
0.152424
0.152784
0.153153
0.15353
0.153917
0.154315
0.154723
0.155143
0.155576
0.156023
0.156484
0.156961
0.157455
0.157967
0.158498
0.159049
0.159623
0.16022
0.160841
0.16149
0.162166
0.162873
0.163612
0.164384
0.165193
0.16604
0.166927
0.167857
0.168833
0.169856
0.17093
0.172057
0.173241
0.174483
0.175787
0.177157
0.178595
0.180104
0.181689
0.183352
0.185096
0.186926
0.188844
0.190855
0.192961
0.195166
0.197473
0.199885
0.202406
0.205037
0.207783
0.210645
0.213626
0.216726
0.219948
0.223291
0.226757
0.230344
0.234051
0.237876
0.241816
0.245867
0.250023
0.254278
0.258624
0.26305
0.267546
0.272099
0.276693
0.281311
0.285933
0.290539
0.295104
0.2996
0.304
0.308271
0.312379
0.316286
0.319953
0.323339
0.326398
0.329086
0.331354
0.333153
0.334435
0.335149
0.335246
0.334678
0.333398
0.331365
0.328539
0.324887
0.320379
0.314995
0.308724
0.301561
0.293513
0.284599
0.274848
0.264304
0.253019
0.241063
0.228513
0.215462
0.202011
0.188271
0.174359
0.160399
0.146516
0.132837
0.119484
0.106576
0.0942207
0.0825164
0.0715468
0.0613802
0.0520781
0.0437294
0.0361889
0.0295424
0.023767
0.0188242
0.0146617
0.0112162
0.00841615
0.00618508
0.00444453
0.00311722
0.00212957
0.00141393
0.000910102
0.000566326
0.000339627
0.000195603
0.000107767
5.65458e-05
2.81162e-05
1.31716e-05
5.77734e-06
2.35564e-06
8.84624e-07
3.03637e-07
9.34474e-08
2.54694e-08
6.01069e-09
1.42666e-09
3.44448e-10
-3.23523e-10
-7.39224e-18
-6.00882e-19
-4.1922e-20
2.66679e-11
1.74675e-21
)
;

boundaryField
{
    fixedWall
    {
        type            calculated;
        value           uniform 0;
    }
    outlet
    {
        type            calculated;
        value           uniform 0;
    }
    defaultFaces
    {
        type            empty;
    }
}


// ************************************************************************* //
