/*--------------------------------*- C++ -*----------------------------------*\
| =========                 |                                                 |
| \\      /  F ield         | OpenFOAM: The Open Source CFD Toolbox           |
|  \\    /   O peration     | Version:  2406                                  |
|   \\  /    A nd           | Website:  www.openfoam.com                      |
|    \\/     M anipulation  |                                                 |
\*---------------------------------------------------------------------------*/
FoamFile
{
    version     2.0;
    format      ascii;
    arch        "LSB;label=32;scalar=64";
    class       volScalarField;
    location    "4.2";
    object      CO2;
}
// * * * * * * * * * * * * * * * * * * * * * * * * * * * * * * * * * * * * * //

dimensions      [0 0 0 0 0 0 0];

internalField   nonuniform List<scalar> 
1000
(
0.0709258
0.0709258
0.0709258
0.0709258
0.0709258
0.0709258
0.0709258
0.0709258
0.0709258
0.0709259
0.0709259
0.0709259
0.0709259
0.0709259
0.0709259
0.0709259
0.070926
0.070926
0.070926
0.070926
0.070926
0.070926
0.070926
0.0709261
0.0709261
0.0709261
0.0709261
0.0709261
0.0709261
0.0709262
0.0709262
0.0709262
0.0709262
0.0709262
0.0709262
0.0709262
0.0709262
0.0709263
0.0709263
0.0709263
0.0709263
0.0709263
0.0709263
0.0709263
0.0709263
0.0709264
0.0709264
0.0709264
0.0709264
0.0709264
0.0709264
0.0709264
0.0709264
0.0709264
0.0709264
0.0709264
0.0709264
0.0709264
0.0709264
0.0709264
0.0709264
0.0709265
0.0709265
0.0709265
0.0709265
0.0709265
0.0709265
0.0709265
0.0709265
0.0709265
0.0709265
0.0709265
0.0709265
0.0709265
0.0709265
0.0709265
0.0709265
0.0709265
0.0709265
0.0709265
0.0709265
0.0709265
0.0709265
0.0709265
0.0709265
0.0709265
0.0709265
0.0709265
0.0709265
0.0709265
0.0709265
0.0709265
0.0709265
0.0709265
0.0709265
0.0709265
0.0709265
0.0709265
0.0709265
0.0709265
0.0709265
0.0709265
0.0709265
0.0709265
0.0709265
0.0709265
0.0709265
0.0709265
0.0709265
0.0709265
0.0709265
0.0709265
0.0709265
0.0709265
0.0709265
0.0709265
0.0709265
0.0709265
0.0709265
0.0709265
0.0709265
0.0709265
0.0709265
0.0709265
0.0709265
0.0709265
0.0709265
0.0709265
0.0709265
0.0709265
0.0709265
0.0709265
0.0709265
0.0709265
0.0709265
0.0709265
0.0709265
0.0709265
0.0709265
0.0709265
0.0709265
0.0709265
0.0709265
0.0709265
0.0709265
0.0709265
0.0709265
0.0709265
0.0709265
0.0709265
0.0709265
0.0709265
0.0709265
0.0709265
0.0709265
0.0709264
0.0709264
0.0709264
0.0709264
0.0709264
0.0709264
0.0709264
0.0709264
0.0709264
0.0709264
0.0709264
0.0709264
0.0709264
0.0709264
0.0709264
0.0709264
0.0709264
0.0709264
0.0709264
0.0709264
0.0709264
0.0709264
0.0709264
0.0709264
0.0709264
0.0709264
0.0709264
0.0709264
0.0709264
0.0709264
0.0709264
0.0709264
0.0709264
0.0709264
0.0709264
0.0709264
0.0709264
0.0709264
0.0709264
0.0709264
0.0709264
0.0709264
0.0709264
0.0709264
0.0709264
0.0709264
0.0709264
0.0709264
0.0709264
0.0709264
0.0709264
0.0709264
0.0709264
0.0709264
0.0709264
0.0709264
0.0709264
0.0709264
0.0709264
0.0709264
0.0709264
0.0709264
0.0709264
0.0709264
0.0709264
0.0709264
0.0709264
0.0709264
0.0709264
0.0709264
0.0709264
0.0709264
0.0709264
0.0709264
0.0709264
0.0709264
0.0709264
0.0709264
0.0709264
0.0709264
0.0709264
0.0709264
0.0709264
0.0709264
0.0709264
0.0709264
0.0709264
0.0709264
0.0709264
0.0709264
0.0709264
0.0709264
0.0709264
0.0709264
0.0709264
0.0709264
0.0709264
0.0709264
0.0709264
0.0709264
0.0709263
0.0709263
0.0709263
0.0709263
0.0709263
0.0709263
0.0709263
0.0709263
0.0709263
0.0709263
0.0709263
0.0709263
0.0709263
0.0709263
0.0709263
0.0709263
0.0709263
0.0709263
0.0709263
0.0709263
0.0709263
0.0709263
0.0709263
0.0709263
0.0709263
0.0709263
0.0709263
0.0709263
0.0709263
0.0709263
0.0709263
0.0709263
0.0709263
0.0709263
0.0709263
0.0709263
0.0709263
0.0709263
0.0709263
0.0709263
0.0709263
0.0709263
0.0709263
0.0709263
0.0709263
0.0709263
0.0709263
0.0709263
0.0709263
0.0709263
0.0709263
0.0709263
0.0709263
0.0709263
0.0709263
0.0709263
0.0709263
0.0709263
0.0709263
0.0709263
0.0709263
0.0709263
0.0709263
0.0709263
0.0709263
0.0709263
0.0709263
0.0709263
0.0709262
0.0709262
0.0709262
0.0709262
0.0709262
0.0709262
0.0709262
0.0709262
0.0709262
0.0709262
0.0709262
0.0709262
0.0709262
0.0709262
0.0709262
0.0709262
0.0709262
0.0709262
0.0709262
0.0709262
0.0709262
0.0709262
0.0709262
0.0709262
0.0709262
0.0709262
0.0709262
0.0709262
0.0709262
0.0709262
0.0709262
0.0709262
0.0709262
0.0709262
0.0709262
0.0709262
0.0709262
0.0709262
0.0709262
0.0709262
0.0709262
0.0709262
0.0709262
0.0709262
0.0709262
0.0709262
0.0709262
0.0709262
0.0709261
0.0709261
0.0709261
0.0709261
0.0709261
0.0709261
0.0709261
0.0709261
0.0709261
0.0709261
0.0709261
0.0709261
0.0709261
0.0709261
0.0709261
0.0709261
0.0709261
0.0709261
0.0709261
0.0709261
0.0709261
0.0709261
0.0709261
0.0709261
0.0709261
0.0709261
0.0709261
0.0709261
0.0709261
0.0709261
0.0709261
0.0709261
0.0709261
0.0709261
0.0709261
0.0709261
0.070926
0.070926
0.070926
0.070926
0.070926
0.070926
0.070926
0.070926
0.070926
0.070926
0.070926
0.070926
0.070926
0.070926
0.070926
0.070926
0.070926
0.070926
0.070926
0.070926
0.070926
0.070926
0.070926
0.070926
0.070926
0.070926
0.070926
0.070926
0.070926
0.0709259
0.0709259
0.0709259
0.0709259
0.0709259
0.0709259
0.0709259
0.0709259
0.0709259
0.0709259
0.0709259
0.0709259
0.0709259
0.0709259
0.0709259
0.0709259
0.0709259
0.0709259
0.0709259
0.0709259
0.0709259
0.0709259
0.0709258
0.0709258
0.0709258
0.0709258
0.0709258
0.0709258
0.0709258
0.0709258
0.0709258
0.0709258
0.0709258
0.0709258
0.0709258
0.0709258
0.0709258
0.0709258
0.0709258
0.0709258
0.0709258
0.0709257
0.0709257
0.0709257
0.0709257
0.0709257
0.0709257
0.0709257
0.0709257
0.0709257
0.0709257
0.0709257
0.0709257
0.0709257
0.0709257
0.0709257
0.0709256
0.0709256
0.0709256
0.0709256
0.0709256
0.0709256
0.0709256
0.0709256
0.0709256
0.0709256
0.0709256
0.0709256
0.0709256
0.0709255
0.0709255
0.0709255
0.0709255
0.0709255
0.0709255
0.0709255
0.0709255
0.0709255
0.0709255
0.0709255
0.0709254
0.0709254
0.0709254
0.0709254
0.0709254
0.0709254
0.0709254
0.0709254
0.0709254
0.0709254
0.0709253
0.0709253
0.0709253
0.0709253
0.0709253
0.0709253
0.0709253
0.0709253
0.0709253
0.0709252
0.0709252
0.0709252
0.0709252
0.0709252
0.0709252
0.0709252
0.0709251
0.0709251
0.0709251
0.0709251
0.0709251
0.0709251
0.0709251
0.070925
0.070925
0.070925
0.070925
0.070925
0.070925
0.0709249
0.0709249
0.0709249
0.0709249
0.0709249
0.0709248
0.0709248
0.0709248
0.0709248
0.0709248
0.0709247
0.0709247
0.0709247
0.0709247
0.0709246
0.0709246
0.0709246
0.0709246
0.0709245
0.0709245
0.0709245
0.0709245
0.0709244
0.0709244
0.0709244
0.0709244
0.0709243
0.0709243
0.0709243
0.0709242
0.0709242
0.0709242
0.0709241
0.0709241
0.070924
0.070924
0.070924
0.0709239
0.0709239
0.0709238
0.0709238
0.0709237
0.0709237
0.0709237
0.0709236
0.0709235
0.0709235
0.0709234
0.0709234
0.0709233
0.0709233
0.0709232
0.0709231
0.0709231
0.070923
0.0709229
0.0709229
0.0709228
0.0709227
0.0709226
0.0709225
0.0709224
0.0709223
0.0709222
0.0709221
0.070922
0.0709219
0.0709218
0.0709217
0.0709215
0.0709214
0.0709212
0.0709211
0.0709209
0.0709208
0.0709206
0.0709204
0.0709202
0.07092
0.0709197
0.0709195
0.0709192
0.070919
0.0709187
0.0709183
0.070918
0.0709176
0.0709172
0.0709167
0.0709163
0.0709157
0.0709151
0.0709144
0.0709137
0.0709128
0.0709119
0.0709108
0.0709096
0.0709082
0.0709065
0.0709046
0.0709023
0.0708995
0.0708961
0.0708917
0.0708861
0.0708787
0.0708685
0.0708539
0.0708315
0.0707939
0.0707234
0.0705754
0.0701998
0.068997
0.0643656
0.033469
0.016489
0.00812145
0.00400264
0.0019773
0.00097975
0.000486812
0.000242395
0.000120864
6.03163e-05
3.01132e-05
1.50365e-05
7.50815e-06
3.74865e-06
1.87136e-06
9.3407e-07
4.66181e-07
2.32684e-07
1.16151e-07
5.80103e-08
2.90149e-08
1.455e-08
7.27577e-09
3.78096e-09
1.97855e-09
1.34746e-09
8.64047e-10
5.14543e-10
3.34642e-10
2.64473e-10
2.27649e-10
1.98618e-10
1.84376e-10
1.79013e-10
1.74992e-10
1.7271e-10
1.71532e-10
1.70763e-10
1.70283e-10
1.69985e-10
1.69842e-10
1.69761e-10
1.69724e-10
1.69693e-10
1.69674e-10
1.69663e-10
1.69659e-10
1.69656e-10
1.69655e-10
1.69655e-10
1.69655e-10
1.69655e-10
1.69656e-10
1.69657e-10
1.69657e-10
1.69658e-10
1.69659e-10
1.69659e-10
1.6966e-10
1.6966e-10
1.69661e-10
1.69662e-10
1.69662e-10
1.69663e-10
1.69664e-10
1.69664e-10
1.69665e-10
1.69666e-10
1.69667e-10
1.69667e-10
1.69668e-10
1.69668e-10
1.69669e-10
1.6967e-10
1.69671e-10
1.69671e-10
1.69672e-10
1.69673e-10
1.69674e-10
1.69674e-10
1.69675e-10
1.69676e-10
1.69676e-10
1.69677e-10
1.69678e-10
1.69679e-10
1.69679e-10
1.6968e-10
1.69681e-10
1.69681e-10
1.69682e-10
1.69683e-10
1.69684e-10
1.69684e-10
1.69685e-10
1.69686e-10
1.69686e-10
1.69687e-10
1.69688e-10
1.69688e-10
1.69689e-10
1.6969e-10
1.69691e-10
1.69691e-10
1.69692e-10
1.69693e-10
1.69693e-10
1.69694e-10
1.69694e-10
1.69695e-10
1.69696e-10
1.69697e-10
1.69697e-10
1.69698e-10
1.69698e-10
1.69699e-10
1.697e-10
1.69701e-10
1.69701e-10
1.69702e-10
1.69703e-10
1.69703e-10
1.69704e-10
1.69705e-10
1.69706e-10
1.69706e-10
1.69707e-10
1.69707e-10
1.69708e-10
1.69709e-10
1.6971e-10
1.6971e-10
1.69711e-10
1.69712e-10
1.69713e-10
1.69713e-10
1.69714e-10
1.69715e-10
1.69716e-10
1.69716e-10
1.69718e-10
1.69718e-10
1.69719e-10
1.6972e-10
1.6972e-10
1.69721e-10
1.69722e-10
1.69722e-10
1.69723e-10
1.69724e-10
1.69724e-10
1.69725e-10
1.69726e-10
1.69727e-10
1.69728e-10
1.69728e-10
1.69729e-10
1.6973e-10
1.6973e-10
1.69731e-10
1.69732e-10
1.69733e-10
1.69733e-10
1.69734e-10
1.69735e-10
1.69735e-10
1.69736e-10
1.69737e-10
1.69737e-10
1.69738e-10
1.69739e-10
1.69739e-10
1.6974e-10
1.6974e-10
1.69741e-10
1.69742e-10
1.69743e-10
1.69743e-10
1.69744e-10
1.69745e-10
1.69745e-10
1.69746e-10
1.69747e-10
1.69748e-10
1.69749e-10
1.69749e-10
1.6975e-10
1.69751e-10
1.69752e-10
1.69752e-10
1.69753e-10
1.69754e-10
1.69755e-10
1.69755e-10
1.69756e-10
1.69757e-10
1.69758e-10
1.69758e-10
1.69759e-10
1.6976e-10
1.69761e-10
1.69761e-10
1.69762e-10
1.69763e-10
1.69764e-10
1.69764e-10
1.69765e-10
1.69766e-10
1.69766e-10
1.69767e-10
1.69768e-10
1.69768e-10
1.69769e-10
1.6977e-10
1.6977e-10
1.69771e-10
1.69772e-10
1.69772e-10
1.69773e-10
1.69774e-10
1.69775e-10
1.69775e-10
1.69776e-10
1.69777e-10
1.69778e-10
1.69778e-10
1.69779e-10
1.6978e-10
1.69781e-10
1.69781e-10
1.69782e-10
1.69783e-10
1.69783e-10
1.69784e-10
1.69785e-10
1.69786e-10
1.69786e-10
1.69787e-10
1.69788e-10
1.69788e-10
1.69789e-10
1.6979e-10
1.6979e-10
1.69791e-10
1.69792e-10
1.69793e-10
1.69793e-10
1.69794e-10
1.69795e-10
1.69796e-10
1.69796e-10
1.69797e-10
1.69798e-10
1.69799e-10
1.69799e-10
1.698e-10
1.69801e-10
1.69801e-10
1.69802e-10
1.69803e-10
1.69804e-10
1.69804e-10
1.69805e-10
1.69806e-10
1.69806e-10
1.69807e-10
1.69808e-10
1.69808e-10
1.69809e-10
1.6981e-10
1.69811e-10
1.69811e-10
1.69812e-10
1.69813e-10
1.69814e-10
1.69814e-10
1.69815e-10
1.69816e-10
1.69817e-10
1.69817e-10
1.69818e-10
1.69819e-10
1.6982e-10
1.6982e-10
1.69821e-10
1.69822e-10
1.69823e-10
1.69823e-10
1.69824e-10
1.69825e-10
1.69825e-10
1.69826e-10
1.69827e-10
1.69828e-10
1.69828e-10
1.69829e-10
1.6983e-10
1.6983e-10
1.69831e-10
1.69832e-10
1.69832e-10
1.69833e-10
1.69834e-10
1.69835e-10
1.69835e-10
1.69836e-10
1.69837e-10
1.69837e-10
1.69838e-10
1.69839e-10
1.6984e-10
1.69841e-10
1.69841e-10
1.69842e-10
1.69843e-10
1.69843e-10
1.69844e-10
1.69845e-10
1.69846e-10
1.69847e-10
1.69848e-10
1.69848e-10
1.69849e-10
1.6985e-10
1.6985e-10
1.69851e-10
1.69852e-10
1.69853e-10
1.69854e-10
)
;

boundaryField
{
    fixedWall
    {
        type            zeroGradient;
    }
    outlet
    {
        type            inletOutlet;
        inletValue      uniform 0;
        value           uniform 1.69854e-10;
    }
    defaultFaces
    {
        type            empty;
    }
}


// ************************************************************************* //
