/*--------------------------------*- C++ -*----------------------------------*\
| =========                 |                                                 |
| \\      /  F ield         | OpenFOAM: The Open Source CFD Toolbox           |
|  \\    /   O peration     | Version:  2406                                  |
|   \\  /    A nd           | Website:  www.openfoam.com                      |
|    \\/     M anipulation  |                                                 |
\*---------------------------------------------------------------------------*/
FoamFile
{
    version     2.0;
    format      ascii;
    arch        "LSB;label=32;scalar=64";
    class       volScalarField;
    location    "4.2";
    object      H2O;
}
// * * * * * * * * * * * * * * * * * * * * * * * * * * * * * * * * * * * * * //

dimensions      [0 0 0 0 0 0 0];

internalField   nonuniform List<scalar> 
1000
(
0.0580663
0.0580663
0.0580663
0.0580663
0.0580663
0.0580663
0.0580664
0.0580664
0.0580664
0.0580664
0.0580664
0.0580664
0.0580664
0.0580664
0.0580664
0.0580664
0.0580665
0.0580665
0.0580665
0.0580665
0.0580665
0.0580665
0.0580665
0.0580665
0.0580666
0.0580666
0.0580666
0.0580666
0.0580666
0.0580666
0.0580666
0.0580666
0.0580667
0.0580667
0.0580667
0.0580667
0.0580667
0.0580667
0.0580667
0.0580667
0.0580667
0.0580667
0.0580668
0.0580668
0.0580668
0.0580668
0.0580668
0.0580668
0.0580668
0.0580668
0.0580668
0.0580668
0.0580668
0.0580668
0.0580668
0.0580668
0.0580668
0.0580668
0.0580669
0.0580669
0.0580669
0.0580669
0.0580669
0.0580669
0.0580669
0.0580669
0.0580669
0.0580669
0.0580669
0.0580669
0.0580669
0.0580669
0.0580669
0.0580669
0.0580669
0.0580669
0.0580669
0.0580669
0.0580669
0.0580669
0.0580669
0.0580669
0.0580669
0.0580669
0.0580669
0.0580669
0.0580669
0.0580669
0.0580669
0.0580669
0.0580669
0.0580669
0.0580669
0.0580669
0.0580669
0.0580669
0.0580669
0.0580669
0.0580669
0.0580669
0.0580669
0.0580669
0.0580669
0.0580669
0.0580669
0.0580669
0.0580669
0.0580669
0.0580669
0.0580669
0.0580669
0.0580669
0.0580669
0.0580669
0.0580669
0.0580669
0.0580669
0.0580669
0.0580669
0.0580669
0.0580669
0.0580669
0.0580669
0.0580669
0.0580669
0.0580669
0.0580669
0.0580669
0.0580669
0.0580669
0.0580669
0.0580669
0.0580669
0.0580669
0.0580669
0.0580669
0.0580669
0.0580669
0.0580669
0.0580669
0.0580669
0.0580669
0.0580669
0.0580669
0.0580669
0.0580669
0.0580669
0.0580669
0.0580669
0.0580669
0.0580669
0.0580669
0.0580669
0.0580669
0.0580669
0.0580669
0.0580669
0.0580669
0.0580669
0.0580669
0.0580669
0.0580669
0.0580669
0.0580669
0.0580669
0.0580669
0.0580669
0.0580669
0.0580669
0.0580669
0.0580669
0.0580668
0.0580668
0.0580668
0.0580668
0.0580668
0.0580668
0.0580668
0.0580668
0.0580668
0.0580668
0.0580668
0.0580668
0.0580668
0.0580668
0.0580668
0.0580668
0.0580668
0.0580668
0.0580668
0.0580668
0.0580668
0.0580668
0.0580668
0.0580668
0.0580668
0.0580668
0.0580668
0.0580668
0.0580668
0.0580668
0.0580668
0.0580668
0.0580668
0.0580668
0.0580668
0.0580668
0.0580668
0.0580668
0.0580668
0.0580668
0.0580668
0.0580668
0.0580668
0.0580668
0.0580668
0.0580668
0.0580668
0.0580668
0.0580668
0.0580668
0.0580668
0.0580668
0.0580668
0.0580668
0.0580668
0.0580668
0.0580668
0.0580668
0.0580668
0.0580668
0.0580668
0.0580668
0.0580668
0.0580668
0.0580668
0.0580668
0.0580668
0.0580668
0.0580668
0.0580668
0.0580668
0.0580668
0.0580668
0.0580668
0.0580668
0.0580668
0.0580668
0.0580668
0.0580668
0.0580668
0.0580668
0.0580668
0.0580668
0.0580668
0.0580668
0.0580668
0.0580668
0.0580668
0.0580668
0.0580668
0.0580668
0.0580668
0.0580668
0.0580668
0.0580668
0.0580668
0.0580668
0.0580668
0.0580668
0.0580668
0.0580668
0.0580668
0.0580668
0.0580668
0.0580668
0.0580668
0.0580668
0.0580668
0.0580668
0.0580668
0.0580668
0.0580667
0.0580667
0.0580667
0.0580667
0.0580667
0.0580667
0.0580667
0.0580667
0.0580667
0.0580667
0.0580667
0.0580667
0.0580667
0.0580667
0.0580667
0.0580667
0.0580667
0.0580667
0.0580667
0.0580667
0.0580667
0.0580667
0.0580667
0.0580667
0.0580667
0.0580667
0.0580667
0.0580667
0.0580667
0.0580667
0.0580667
0.0580667
0.0580667
0.0580667
0.0580667
0.0580667
0.0580667
0.0580667
0.0580667
0.0580667
0.0580667
0.0580667
0.0580667
0.0580667
0.0580667
0.0580667
0.0580667
0.0580667
0.0580667
0.0580667
0.0580667
0.0580667
0.0580667
0.0580667
0.0580667
0.0580667
0.0580667
0.0580667
0.0580667
0.0580667
0.0580667
0.0580667
0.0580667
0.0580667
0.0580667
0.0580667
0.0580667
0.0580667
0.0580667
0.0580667
0.0580666
0.0580666
0.0580666
0.0580666
0.0580666
0.0580666
0.0580666
0.0580666
0.0580666
0.0580666
0.0580666
0.0580666
0.0580666
0.0580666
0.0580666
0.0580666
0.0580666
0.0580666
0.0580666
0.0580666
0.0580666
0.0580666
0.0580666
0.0580666
0.0580666
0.0580666
0.0580666
0.0580666
0.0580666
0.0580666
0.0580666
0.0580666
0.0580666
0.0580666
0.0580666
0.0580666
0.0580666
0.0580666
0.0580666
0.0580666
0.0580666
0.0580666
0.0580666
0.0580666
0.0580666
0.0580666
0.0580666
0.0580666
0.0580666
0.0580665
0.0580665
0.0580665
0.0580665
0.0580665
0.0580665
0.0580665
0.0580665
0.0580665
0.0580665
0.0580665
0.0580665
0.0580665
0.0580665
0.0580665
0.0580665
0.0580665
0.0580665
0.0580665
0.0580665
0.0580665
0.0580665
0.0580665
0.0580665
0.0580665
0.0580665
0.0580665
0.0580665
0.0580665
0.0580665
0.0580665
0.0580665
0.0580665
0.0580665
0.0580665
0.0580664
0.0580664
0.0580664
0.0580664
0.0580664
0.0580664
0.0580664
0.0580664
0.0580664
0.0580664
0.0580664
0.0580664
0.0580664
0.0580664
0.0580664
0.0580664
0.0580664
0.0580664
0.0580664
0.0580664
0.0580664
0.0580664
0.0580664
0.0580664
0.0580664
0.0580664
0.0580664
0.0580663
0.0580663
0.0580663
0.0580663
0.0580663
0.0580663
0.0580663
0.0580663
0.0580663
0.0580663
0.0580663
0.0580663
0.0580663
0.0580663
0.0580663
0.0580663
0.0580663
0.0580663
0.0580663
0.0580663
0.0580663
0.0580662
0.0580662
0.0580662
0.0580662
0.0580662
0.0580662
0.0580662
0.0580662
0.0580662
0.0580662
0.0580662
0.0580662
0.0580662
0.0580662
0.0580662
0.0580662
0.0580662
0.0580661
0.0580661
0.0580661
0.0580661
0.0580661
0.0580661
0.0580661
0.0580661
0.0580661
0.0580661
0.0580661
0.0580661
0.0580661
0.0580661
0.058066
0.058066
0.058066
0.058066
0.058066
0.058066
0.058066
0.058066
0.058066
0.058066
0.058066
0.058066
0.0580659
0.0580659
0.0580659
0.0580659
0.0580659
0.0580659
0.0580659
0.0580659
0.0580659
0.0580659
0.0580658
0.0580658
0.0580658
0.0580658
0.0580658
0.0580658
0.0580658
0.0580658
0.0580658
0.0580657
0.0580657
0.0580657
0.0580657
0.0580657
0.0580657
0.0580657
0.0580657
0.0580656
0.0580656
0.0580656
0.0580656
0.0580656
0.0580656
0.0580655
0.0580655
0.0580655
0.0580655
0.0580655
0.0580655
0.0580654
0.0580654
0.0580654
0.0580654
0.0580654
0.0580653
0.0580653
0.0580653
0.0580653
0.0580653
0.0580652
0.0580652
0.0580652
0.0580652
0.0580651
0.0580651
0.0580651
0.0580651
0.058065
0.058065
0.058065
0.058065
0.0580649
0.0580649
0.0580649
0.0580648
0.0580648
0.0580648
0.0580647
0.0580647
0.0580646
0.0580646
0.0580646
0.0580645
0.0580645
0.0580644
0.0580644
0.0580644
0.0580643
0.0580643
0.0580642
0.0580641
0.0580641
0.058064
0.058064
0.0580639
0.0580638
0.0580638
0.0580637
0.0580636
0.0580636
0.0580635
0.0580634
0.0580633
0.0580632
0.0580631
0.058063
0.0580629
0.0580628
0.0580627
0.0580626
0.0580625
0.0580623
0.0580622
0.0580621
0.0580619
0.0580617
0.0580616
0.0580614
0.0580612
0.058061
0.0580607
0.0580605
0.0580602
0.0580599
0.0580596
0.0580593
0.0580589
0.0580585
0.0580581
0.0580576
0.058057
0.0580564
0.0580557
0.0580549
0.0580541
0.0580531
0.0580519
0.0580506
0.058049
0.0580471
0.0580448
0.058042
0.0580384
0.0580339
0.0580278
0.0580194
0.0580075
0.0579892
0.0579583
0.0579006
0.0577795
0.057472
0.0564872
0.0526956
0.0274008
0.0134994
0.00664896
0.00327693
0.0016188
0.000802112
0.000398549
0.000198447
9.89504e-05
4.93804e-05
2.46534e-05
1.23103e-05
6.14686e-06
3.06899e-06
1.53207e-06
7.64715e-07
3.81658e-07
1.90496e-07
9.50919e-08
4.74925e-08
2.37543e-08
1.1912e-08
5.95661e-09
3.09544e-09
1.61982e-09
1.10316e-09
7.07388e-10
4.21252e-10
2.73968e-10
2.16521e-10
1.86375e-10
1.62607e-10
1.50947e-10
1.46557e-10
1.43265e-10
1.41396e-10
1.40431e-10
1.39802e-10
1.3941e-10
1.39165e-10
1.39048e-10
1.38982e-10
1.38951e-10
1.38926e-10
1.38911e-10
1.38902e-10
1.38899e-10
1.38896e-10
1.38895e-10
1.38895e-10
1.38895e-10
1.38895e-10
1.38896e-10
1.38896e-10
1.38897e-10
1.38897e-10
1.38898e-10
1.38898e-10
1.38899e-10
1.389e-10
1.389e-10
1.389e-10
1.38901e-10
1.38902e-10
1.38902e-10
1.38903e-10
1.38903e-10
1.38904e-10
1.38905e-10
1.38905e-10
1.38906e-10
1.38906e-10
1.38907e-10
1.38907e-10
1.38908e-10
1.38909e-10
1.38909e-10
1.3891e-10
1.3891e-10
1.38911e-10
1.38911e-10
1.38912e-10
1.38913e-10
1.38913e-10
1.38914e-10
1.38914e-10
1.38915e-10
1.38915e-10
1.38916e-10
1.38916e-10
1.38917e-10
1.38918e-10
1.38918e-10
1.38919e-10
1.38919e-10
1.3892e-10
1.38921e-10
1.38921e-10
1.38922e-10
1.38922e-10
1.38923e-10
1.38923e-10
1.38924e-10
1.38925e-10
1.38925e-10
1.38926e-10
1.38926e-10
1.38927e-10
1.38927e-10
1.38928e-10
1.38929e-10
1.38929e-10
1.3893e-10
1.3893e-10
1.38931e-10
1.38931e-10
1.38932e-10
1.38932e-10
1.38933e-10
1.38934e-10
1.38934e-10
1.38935e-10
1.38935e-10
1.38936e-10
1.38936e-10
1.38937e-10
1.38937e-10
1.38938e-10
1.38939e-10
1.38939e-10
1.3894e-10
1.3894e-10
1.38941e-10
1.38941e-10
1.38942e-10
1.38943e-10
1.38943e-10
1.38944e-10
1.38945e-10
1.38945e-10
1.38946e-10
1.38947e-10
1.38947e-10
1.38948e-10
1.38949e-10
1.38949e-10
1.3895e-10
1.3895e-10
1.38951e-10
1.38951e-10
1.38952e-10
1.38953e-10
1.38953e-10
1.38954e-10
1.38955e-10
1.38955e-10
1.38956e-10
1.38956e-10
1.38957e-10
1.38957e-10
1.38958e-10
1.38959e-10
1.38959e-10
1.3896e-10
1.3896e-10
1.38961e-10
1.38961e-10
1.38962e-10
1.38963e-10
1.38963e-10
1.38964e-10
1.38964e-10
1.38965e-10
1.38965e-10
1.38966e-10
1.38966e-10
1.38967e-10
1.38967e-10
1.38968e-10
1.38968e-10
1.38969e-10
1.3897e-10
1.3897e-10
1.38971e-10
1.38972e-10
1.38972e-10
1.38973e-10
1.38974e-10
1.38974e-10
1.38975e-10
1.38976e-10
1.38976e-10
1.38977e-10
1.38977e-10
1.38978e-10
1.38979e-10
1.38979e-10
1.3898e-10
1.3898e-10
1.38981e-10
1.38982e-10
1.38982e-10
1.38983e-10
1.38983e-10
1.38984e-10
1.38984e-10
1.38985e-10
1.38986e-10
1.38986e-10
1.38987e-10
1.38987e-10
1.38988e-10
1.38989e-10
1.38989e-10
1.38989e-10
1.3899e-10
1.38991e-10
1.38991e-10
1.38992e-10
1.38992e-10
1.38993e-10
1.38994e-10
1.38994e-10
1.38995e-10
1.38995e-10
1.38996e-10
1.38997e-10
1.38997e-10
1.38998e-10
1.38998e-10
1.38999e-10
1.39e-10
1.39e-10
1.39001e-10
1.39002e-10
1.39002e-10
1.39002e-10
1.39003e-10
1.39004e-10
1.39004e-10
1.39005e-10
1.39005e-10
1.39006e-10
1.39007e-10
1.39007e-10
1.39008e-10
1.39008e-10
1.39009e-10
1.39009e-10
1.3901e-10
1.39011e-10
1.39011e-10
1.39012e-10
1.39013e-10
1.39013e-10
1.39014e-10
1.39014e-10
1.39015e-10
1.39015e-10
1.39016e-10
1.39017e-10
1.39017e-10
1.39018e-10
1.39018e-10
1.39019e-10
1.39019e-10
1.3902e-10
1.39021e-10
1.39021e-10
1.39022e-10
1.39023e-10
1.39023e-10
1.39024e-10
1.39024e-10
1.39025e-10
1.39025e-10
1.39026e-10
1.39027e-10
1.39027e-10
1.39028e-10
1.39028e-10
1.39029e-10
1.3903e-10
1.3903e-10
1.39031e-10
1.39032e-10
1.39032e-10
1.39033e-10
1.39034e-10
1.39034e-10
1.39035e-10
1.39035e-10
1.39036e-10
1.39036e-10
1.39037e-10
1.39038e-10
1.39038e-10
1.39039e-10
1.39039e-10
1.3904e-10
1.3904e-10
1.39041e-10
1.39042e-10
1.39042e-10
1.39043e-10
1.39043e-10
1.39044e-10
1.39044e-10
1.39045e-10
1.39046e-10
1.39046e-10
1.39047e-10
1.39047e-10
1.39048e-10
1.39049e-10
1.39049e-10
1.3905e-10
1.39051e-10
1.39051e-10
1.39052e-10
1.39053e-10
1.39053e-10
1.39054e-10
1.39055e-10
1.39055e-10
1.39056e-10
1.39056e-10
1.39057e-10
1.39058e-10
)
;

boundaryField
{
    fixedWall
    {
        type            zeroGradient;
    }
    outlet
    {
        type            inletOutlet;
        inletValue      uniform 0;
        value           uniform 1.39058e-10;
    }
    defaultFaces
    {
        type            empty;
    }
}


// ************************************************************************* //
