/*--------------------------------*- C++ -*----------------------------------*\
| =========                 |                                                 |
| \\      /  F ield         | OpenFOAM: The Open Source CFD Toolbox           |
|  \\    /   O peration     | Version:  2406                                  |
|   \\  /    A nd           | Website:  www.openfoam.com                      |
|    \\/     M anipulation  |                                                 |
\*---------------------------------------------------------------------------*/
FoamFile
{
    version     2.0;
    format      ascii;
    arch        "LSB;label=32;scalar=64";
    class       volVectorField;
    location    "4.2";
    object      U;
}
// * * * * * * * * * * * * * * * * * * * * * * * * * * * * * * * * * * * * * //

dimensions      [0 1 -1 0 0 0 0];

internalField   nonuniform List<vector> 
1000
(
(-3.99639e-06 0 0)
(-1.91166e-05 0 0)
(-4.73658e-05 0 0)
(-8.38952e-05 0 0)
(-0.000126432 0 0)
(-0.000173588 0 0)
(-0.000224385 0 0)
(-0.000278053 0 0)
(-0.000333978 0 0)
(-0.000391665 0 0)
(-0.000450712 0 0)
(-0.000510787 0 0)
(-0.00057161 0 0)
(-0.000632944 0 0)
(-0.000694583 0 0)
(-0.000756351 0 0)
(-0.000818094 0 0)
(-0.000879677 0 0)
(-0.000940978 0 0)
(-0.00100189 0 0)
(-0.00106232 0 0)
(-0.00112219 0 0)
(-0.00118142 0 0)
(-0.00123993 0 0)
(-0.00129768 0 0)
(-0.00135461 0 0)
(-0.00141066 0 0)
(-0.0014658 0 0)
(-0.00151999 0 0)
(-0.0015732 0 0)
(-0.00162539 0 0)
(-0.00167654 0 0)
(-0.00172663 0 0)
(-0.00177564 0 0)
(-0.00182355 0 0)
(-0.00187035 0 0)
(-0.00191604 0 0)
(-0.00196059 0 0)
(-0.00200402 0 0)
(-0.00204631 0 0)
(-0.00208747 0 0)
(-0.0021275 0 0)
(-0.00216639 0 0)
(-0.00220415 0 0)
(-0.0022408 0 0)
(-0.00227634 0 0)
(-0.00231077 0 0)
(-0.00234411 0 0)
(-0.00237638 0 0)
(-0.00240757 0 0)
(-0.00243772 0 0)
(-0.00246683 0 0)
(-0.00249491 0 0)
(-0.002522 0 0)
(-0.0025481 0 0)
(-0.00257323 0 0)
(-0.00259741 0 0)
(-0.00262067 0 0)
(-0.00264302 0 0)
(-0.00266448 0 0)
(-0.00268507 0 0)
(-0.00270481 0 0)
(-0.00272373 0 0)
(-0.00274185 0 0)
(-0.00275919 0 0)
(-0.00277577 0 0)
(-0.00279161 0 0)
(-0.00280674 0 0)
(-0.00282117 0 0)
(-0.00283493 0 0)
(-0.00284805 0 0)
(-0.00286053 0 0)
(-0.00287241 0 0)
(-0.0028837 0 0)
(-0.00289443 0 0)
(-0.00290462 0 0)
(-0.00291428 0 0)
(-0.00292344 0 0)
(-0.00293211 0 0)
(-0.00294032 0 0)
(-0.00294809 0 0)
(-0.00295541 0 0)
(-0.00296242 0 0)
(-0.00296886 0 0)
(-0.00297507 0 0)
(-0.00298085 0 0)
(-0.00298632 0 0)
(-0.0029916 0 0)
(-0.00299631 0 0)
(-0.00300082 0 0)
(-0.00300507 0 0)
(-0.00300906 0 0)
(-0.0030128 0 0)
(-0.0030163 0 0)
(-0.00301958 0 0)
(-0.00302264 0 0)
(-0.0030255 0 0)
(-0.00302817 0 0)
(-0.00303066 0 0)
(-0.00303297 0 0)
(-0.00303513 0 0)
(-0.00303713 0 0)
(-0.00303898 0 0)
(-0.00304071 0 0)
(-0.00304231 0 0)
(-0.00304379 0 0)
(-0.00304516 0 0)
(-0.00304642 0 0)
(-0.00304759 0 0)
(-0.00304867 0 0)
(-0.00304966 0 0)
(-0.00305057 0 0)
(-0.00305141 0 0)
(-0.00305218 0 0)
(-0.00305289 0 0)
(-0.00305354 0 0)
(-0.00305413 0 0)
(-0.00305467 0 0)
(-0.00305516 0 0)
(-0.00305562 0 0)
(-0.003056 0 0)
(-0.00305643 0 0)
(-0.00305675 0 0)
(-0.00305702 0 0)
(-0.00305734 0 0)
(-0.00305757 0 0)
(-0.0030578 0 0)
(-0.00305801 0 0)
(-0.00305819 0 0)
(-0.00305836 0 0)
(-0.00305851 0 0)
(-0.00305864 0 0)
(-0.00305876 0 0)
(-0.00305887 0 0)
(-0.00305896 0 0)
(-0.00305905 0 0)
(-0.00305913 0 0)
(-0.0030592 0 0)
(-0.00305926 0 0)
(-0.00305931 0 0)
(-0.00305936 0 0)
(-0.0030594 0 0)
(-0.00305944 0 0)
(-0.00305948 0 0)
(-0.00305951 0 0)
(-0.00305953 0 0)
(-0.00305956 0 0)
(-0.00305958 0 0)
(-0.00305961 0 0)
(-0.00305963 0 0)
(-0.00305965 0 0)
(-0.00305966 0 0)
(-0.00305968 0 0)
(-0.0030597 0 0)
(-0.00305972 0 0)
(-0.00305973 0 0)
(-0.00305975 0 0)
(-0.00305977 0 0)
(-0.00305979 0 0)
(-0.0030598 0 0)
(-0.00305982 0 0)
(-0.00305984 0 0)
(-0.00305986 0 0)
(-0.00305988 0 0)
(-0.0030599 0 0)
(-0.00305992 0 0)
(-0.00305995 0 0)
(-0.00305997 0 0)
(-0.00305999 0 0)
(-0.00306002 0 0)
(-0.00306005 0 0)
(-0.00306007 0 0)
(-0.0030601 0 0)
(-0.00306013 0 0)
(-0.00306016 0 0)
(-0.00306019 0 0)
(-0.00306023 0 0)
(-0.00306026 0 0)
(-0.00306029 0 0)
(-0.00306033 0 0)
(-0.00306037 0 0)
(-0.0030604 0 0)
(-0.00306044 0 0)
(-0.00306048 0 0)
(-0.00306052 0 0)
(-0.00306056 0 0)
(-0.0030606 0 0)
(-0.00306065 0 0)
(-0.00306069 0 0)
(-0.00306073 0 0)
(-0.00306078 0 0)
(-0.00306083 0 0)
(-0.00306087 0 0)
(-0.00306092 0 0)
(-0.00306097 0 0)
(-0.00306102 0 0)
(-0.00306107 0 0)
(-0.00306112 0 0)
(-0.00306118 0 0)
(-0.00306123 0 0)
(-0.00306128 0 0)
(-0.00306134 0 0)
(-0.0030614 0 0)
(-0.00306145 0 0)
(-0.00306151 0 0)
(-0.00306157 0 0)
(-0.00306163 0 0)
(-0.00306169 0 0)
(-0.00306175 0 0)
(-0.00306181 0 0)
(-0.00306187 0 0)
(-0.00306194 0 0)
(-0.003062 0 0)
(-0.00306207 0 0)
(-0.00306213 0 0)
(-0.0030622 0 0)
(-0.00306227 0 0)
(-0.00306233 0 0)
(-0.0030624 0 0)
(-0.00306247 0 0)
(-0.00306255 0 0)
(-0.00306262 0 0)
(-0.00306269 0 0)
(-0.00306276 0 0)
(-0.00306284 0 0)
(-0.00306291 0 0)
(-0.00306299 0 0)
(-0.00306307 0 0)
(-0.00306315 0 0)
(-0.00306323 0 0)
(-0.00306331 0 0)
(-0.00306339 0 0)
(-0.00306347 0 0)
(-0.00306355 0 0)
(-0.00306364 0 0)
(-0.00306372 0 0)
(-0.00306381 0 0)
(-0.0030639 0 0)
(-0.00306398 0 0)
(-0.00306407 0 0)
(-0.00306416 0 0)
(-0.00306425 0 0)
(-0.00306435 0 0)
(-0.00306444 0 0)
(-0.00306453 0 0)
(-0.00306463 0 0)
(-0.00306472 0 0)
(-0.00306482 0 0)
(-0.00306492 0 0)
(-0.00306502 0 0)
(-0.00306512 0 0)
(-0.00306522 0 0)
(-0.00306532 0 0)
(-0.00306543 0 0)
(-0.00306553 0 0)
(-0.00306564 0 0)
(-0.00306574 0 0)
(-0.00306585 0 0)
(-0.00306596 0 0)
(-0.00306607 0 0)
(-0.00306618 0 0)
(-0.00306629 0 0)
(-0.00306641 0 0)
(-0.00306652 0 0)
(-0.00306664 0 0)
(-0.00306676 0 0)
(-0.00306687 0 0)
(-0.00306699 0 0)
(-0.00306712 0 0)
(-0.00306724 0 0)
(-0.00306736 0 0)
(-0.00306749 0 0)
(-0.00306761 0 0)
(-0.00306774 0 0)
(-0.00306787 0 0)
(-0.003068 0 0)
(-0.00306813 0 0)
(-0.00306826 0 0)
(-0.0030684 0 0)
(-0.00306853 0 0)
(-0.00306867 0 0)
(-0.00306881 0 0)
(-0.00306895 0 0)
(-0.00306909 0 0)
(-0.00306923 0 0)
(-0.00306938 0 0)
(-0.00306952 0 0)
(-0.00306967 0 0)
(-0.00306982 0 0)
(-0.00306997 0 0)
(-0.00307012 0 0)
(-0.00307027 0 0)
(-0.00307043 0 0)
(-0.00307058 0 0)
(-0.00307074 0 0)
(-0.0030709 0 0)
(-0.00307106 0 0)
(-0.00307122 0 0)
(-0.00307139 0 0)
(-0.00307155 0 0)
(-0.00307172 0 0)
(-0.00307189 0 0)
(-0.00307206 0 0)
(-0.00307223 0 0)
(-0.0030724 0 0)
(-0.00307258 0 0)
(-0.00307275 0 0)
(-0.00307293 0 0)
(-0.00307311 0 0)
(-0.00307329 0 0)
(-0.00307348 0 0)
(-0.00307366 0 0)
(-0.00307385 0 0)
(-0.00307403 0 0)
(-0.00307422 0 0)
(-0.00307441 0 0)
(-0.00307461 0 0)
(-0.0030748 0 0)
(-0.003075 0 0)
(-0.00307519 0 0)
(-0.00307539 0 0)
(-0.00307559 0 0)
(-0.00307579 0 0)
(-0.00307599 0 0)
(-0.0030762 0 0)
(-0.0030764 0 0)
(-0.00307661 0 0)
(-0.00307682 0 0)
(-0.00307703 0 0)
(-0.00307724 0 0)
(-0.00307746 0 0)
(-0.00307767 0 0)
(-0.00307789 0 0)
(-0.0030781 0 0)
(-0.00307832 0 0)
(-0.00307854 0 0)
(-0.00307877 0 0)
(-0.00307899 0 0)
(-0.00307921 0 0)
(-0.00307944 0 0)
(-0.00307967 0 0)
(-0.0030799 0 0)
(-0.00308013 0 0)
(-0.00308036 0 0)
(-0.0030806 0 0)
(-0.00308083 0 0)
(-0.00308107 0 0)
(-0.00308131 0 0)
(-0.00308155 0 0)
(-0.0030818 0 0)
(-0.00308204 0 0)
(-0.00308229 0 0)
(-0.00308253 0 0)
(-0.00308278 0 0)
(-0.00308303 0 0)
(-0.00308329 0 0)
(-0.00308354 0 0)
(-0.0030838 0 0)
(-0.00308405 0 0)
(-0.00308431 0 0)
(-0.00308458 0 0)
(-0.00308484 0 0)
(-0.00308511 0 0)
(-0.00308537 0 0)
(-0.00308564 0 0)
(-0.00308591 0 0)
(-0.00308619 0 0)
(-0.00308646 0 0)
(-0.00308674 0 0)
(-0.00308702 0 0)
(-0.0030873 0 0)
(-0.00308758 0 0)
(-0.00308787 0 0)
(-0.00308816 0 0)
(-0.00308844 0 0)
(-0.00308874 0 0)
(-0.00308903 0 0)
(-0.00308932 0 0)
(-0.00308962 0 0)
(-0.00308992 0 0)
(-0.00309022 0 0)
(-0.00309053 0 0)
(-0.00309083 0 0)
(-0.00309114 0 0)
(-0.00309145 0 0)
(-0.00309176 0 0)
(-0.00309208 0 0)
(-0.0030924 0 0)
(-0.00309271 0 0)
(-0.00309304 0 0)
(-0.00309336 0 0)
(-0.00309369 0 0)
(-0.00309401 0 0)
(-0.00309434 0 0)
(-0.00309467 0 0)
(-0.00309501 0 0)
(-0.00309534 0 0)
(-0.00309568 0 0)
(-0.00309602 0 0)
(-0.00309637 0 0)
(-0.00309671 0 0)
(-0.00309706 0 0)
(-0.00309741 0 0)
(-0.00309776 0 0)
(-0.00309811 0 0)
(-0.00309846 0 0)
(-0.00309882 0 0)
(-0.00309918 0 0)
(-0.00309954 0 0)
(-0.0030999 0 0)
(-0.00310026 0 0)
(-0.00310063 0 0)
(-0.00310099 0 0)
(-0.00310136 0 0)
(-0.00310173 0 0)
(-0.00310209 0 0)
(-0.00310247 0 0)
(-0.00310284 0 0)
(-0.00310321 0 0)
(-0.00310358 0 0)
(-0.00310396 0 0)
(-0.00310433 0 0)
(-0.00310471 0 0)
(-0.00310508 0 0)
(-0.00310546 0 0)
(-0.00310583 0 0)
(-0.00310621 0 0)
(-0.00310659 0 0)
(-0.00310697 0 0)
(-0.00310735 0 0)
(-0.00310773 0 0)
(-0.0031081 0 0)
(-0.00310848 0 0)
(-0.00310886 0 0)
(-0.00310924 0 0)
(-0.00310963 0 0)
(-0.00311001 0 0)
(-0.00311039 0 0)
(-0.00311077 0 0)
(-0.00311116 0 0)
(-0.00311154 0 0)
(-0.00311193 0 0)
(-0.00311232 0 0)
(-0.00311271 0 0)
(-0.0031131 0 0)
(-0.00311349 0 0)
(-0.00311388 0 0)
(-0.00311428 0 0)
(-0.00311468 0 0)
(-0.00311508 0 0)
(-0.00311548 0 0)
(-0.00311589 0 0)
(-0.0031163 0 0)
(-0.00311671 0 0)
(-0.00311712 0 0)
(-0.00311754 0 0)
(-0.00311796 0 0)
(-0.00311839 0 0)
(-0.00311882 0 0)
(-0.00311925 0 0)
(-0.00311968 0 0)
(-0.00312013 0 0)
(-0.00312057 0 0)
(-0.00312102 0 0)
(-0.00312147 0 0)
(-0.00312193 0 0)
(-0.00312239 0 0)
(-0.00312285 0 0)
(-0.00312332 0 0)
(-0.00312379 0 0)
(-0.00312427 0 0)
(-0.00312475 0 0)
(-0.00312523 0 0)
(-0.00312572 0 0)
(-0.00312621 0 0)
(-0.0031267 0 0)
(-0.0031272 0 0)
(-0.0031277 0 0)
(-0.0031282 0 0)
(-0.0031287 0 0)
(-0.00312921 0 0)
(-0.00312972 0 0)
(-0.00313023 0 0)
(-0.00313074 0 0)
(-0.00313125 0 0)
(-0.00313176 0 0)
(-0.00313228 0 0)
(-0.0031328 0 0)
(-0.00313331 0 0)
(-0.00313383 0 0)
(-0.00313435 0 0)
(-0.00313487 0 0)
(-0.00313539 0 0)
(-0.00313591 0 0)
(-0.00313643 0 0)
(-0.00313695 0 0)
(-0.00313747 0 0)
(-0.00313799 0 0)
(-0.00313851 0 0)
(-0.00313903 0 0)
(-0.00313955 0 0)
(-0.00314008 0 0)
(-0.0031406 0 0)
(-0.00314113 0 0)
(-0.00314165 0 0)
(-0.00314218 0 0)
(-0.00314271 0 0)
(-0.00314325 0 0)
(-0.00314378 0 0)
(-0.00314432 0 0)
(-0.00314486 0 0)
(-0.0031454 0 0)
(-0.00314594 0 0)
(-0.00314649 0 0)
(-0.00314704 0 0)
(-0.0031476 0 0)
(-0.00314816 0 0)
(-0.00314871 0 0)
(-0.00314928 0 0)
(-0.00314984 0 0)
(-0.00315041 0 0)
(-0.00315098 0 0)
(-0.00315156 0 0)
(-0.00315213 0 0)
(-0.00315271 0 0)
(-0.00315329 0 0)
(-0.00315387 0 0)
(-0.00315445 0 0)
(-0.00315503 0 0)
(-0.00315562 0 0)
(-0.0031562 0 0)
(-0.00315679 0 0)
(-0.00315738 0 0)
(-0.00315797 0 0)
(-0.00315856 0 0)
(-0.00315915 0 0)
(-0.00315974 0 0)
(-0.00316034 0 0)
(-0.00316093 0 0)
(-0.00316153 0 0)
(-0.00316214 0 0)
(-0.00316274 0 0)
(-0.00316335 0 0)
(-0.00316396 0 0)
(-0.00316458 0 0)
(-0.0031652 0 0)
(-0.00316582 0 0)
(-0.00316645 0 0)
(-0.00316709 0 0)
(-0.00316773 0 0)
(-0.00316837 0 0)
(-0.00316902 0 0)
(-0.00316968 0 0)
(-0.00317034 0 0)
(-0.003171 0 0)
(-0.00317167 0 0)
(-0.00317235 0 0)
(-0.00317302 0 0)
(-0.0031737 0 0)
(-0.00317439 0 0)
(-0.00317507 0 0)
(-0.00317576 0 0)
(-0.00317645 0 0)
(-0.00317714 0 0)
(-0.00317784 0 0)
(-0.00317853 0 0)
(-0.00317923 0 0)
(-0.00317992 0 0)
(-0.00318062 0 0)
(-0.00318131 0 0)
(-0.00318201 0 0)
(-0.00318271 0 0)
(-0.0031834 0 0)
(-0.0031841 0 0)
(-0.00318479 0 0)
(-0.00318549 0 0)
(-0.00318618 0 0)
(-0.00318688 0 0)
(-0.00318757 0 0)
(-0.00318826 0 0)
(-0.00318895 0 0)
(-0.00318963 0 0)
(-0.00319031 0 0)
(-0.00319099 0 0)
(-0.00319166 0 0)
(-0.00319232 0 0)
(-0.00319298 0 0)
(-0.00319364 0 0)
(-0.00319428 0 0)
(-0.00319493 0 0)
(-0.00319556 0 0)
(-0.00319619 0 0)
(-0.00319681 0 0)
(-0.00319743 0 0)
(-0.00319804 0 0)
(-0.00319865 0 0)
(-0.00319926 0 0)
(-0.00319987 0 0)
(-0.00320049 0 0)
(-0.0032011 0 0)
(-0.00320173 0 0)
(-0.00320236 0 0)
(-0.003203 0 0)
(-0.00320365 0 0)
(-0.00320431 0 0)
(-0.00320499 0 0)
(-0.00320568 0 0)
(-0.00320639 0 0)
(-0.00320712 0 0)
(-0.00320786 0 0)
(-0.00320862 0 0)
(-0.00320939 0 0)
(-0.00321018 0 0)
(-0.00321097 0 0)
(-0.00321176 0 0)
(-0.00321256 0 0)
(-0.00321335 0 0)
(-0.00321414 0 0)
(-0.00321492 0 0)
(-0.00321569 0 0)
(-0.00321643 0 0)
(-0.00321716 0 0)
(-0.00321787 0 0)
(-0.00321856 0 0)
(-0.00321922 0 0)
(-0.00321987 0 0)
(-0.00322051 0 0)
(-0.00322113 0 0)
(-0.00322175 0 0)
(-0.00322237 0 0)
(-0.00322299 0 0)
(-0.00322362 0 0)
(-0.00322425 0 0)
(-0.00322489 0 0)
(-0.00322553 0 0)
(-0.00322618 0 0)
(-0.00322682 0 0)
(-0.00322747 0 0)
(-0.00322808 0 0)
(-0.00322869 0 0)
(-0.00322932 0 0)
(-0.00322987 0 0)
(-0.00323055 0 0)
(-0.00323105 0 0)
(-0.00323185 0 0)
(-0.00323251 0 0)
(-0.00323309 0 0)
(-0.00323386 0 0)
(-0.00323444 0 0)
(-0.00323483 0 0)
(-0.00323523 0 0)
(-0.00323404 0 0)
(-0.0032345 0 0)
(-0.00323218 0 0)
(-0.00322991 0 0)
(-0.00322767 0 0)
(-0.00322257 0 0)
(-0.00321895 0 0)
(-0.00321377 0 0)
(-0.00320841 0 0)
(-0.00320243 0 0)
(-0.00319451 0 0)
(-0.00318054 0 0)
(-0.0031541 0 0)
(-0.00311764 0 0)
(-0.0030301 0 0)
(-0.00294935 0 0)
(-0.00238854 0 0)
(-0.00231603 0 0)
(0.00105403 0 0)
(0.0229719 0 0)
(0.0586018 0 0)
(0.0856396 0 0)
(0.100941 0 0)
(0.108746 0 0)
(0.112426 0 0)
(0.114115 0 0)
(0.114871 0 0)
(0.115267 0 0)
(0.115472 0 0)
(0.11556 0 0)
(0.115628 0 0)
(0.115659 0 0)
(0.115657 0 0)
(0.115662 0 0)
(0.115665 0 0)
(0.115668 0 0)
(0.115692 0 0)
(0.115686 0 0)
(0.115627 0 0)
(0.1157 0 0)
(0.115649 0 0)
(0.115677 0 0)
(0.115703 0 0)
(0.115584 0 0)
(0.115713 0 0)
(0.115698 0 0)
(0.115601 0 0)
(0.115694 0 0)
(0.11563 0 0)
(0.115683 0 0)
(0.115688 0 0)
(0.115573 0 0)
(0.115704 0 0)
(0.115694 0 0)
(0.115573 0 0)
(0.115672 0 0)
(0.115698 0 0)
(0.115639 0 0)
(0.115569 0 0)
(0.115682 0 0)
(0.115717 0 0)
(0.115532 0 0)
(0.115701 0 0)
(0.115692 0 0)
(0.115534 0 0)
(0.115692 0 0)
(0.115698 0 0)
(0.11554 0 0)
(0.11568 0 0)
(0.115671 0 0)
(0.115614 0 0)
(0.115578 0 0)
(0.115647 0 0)
(0.115681 0 0)
(0.115581 0 0)
(0.115643 0 0)
(0.115639 0 0)
(0.115613 0 0)
(0.115634 0 0)
(0.11559 0 0)
(0.115652 0 0)
(0.115653 0 0)
(0.115567 0 0)
(0.115655 0 0)
(0.115575 0 0)
(0.115649 0 0)
(0.115637 0 0)
(0.115571 0 0)
(0.115642 0 0)
(0.115622 0 0)
(0.11556 0 0)
(0.115649 0 0)
(0.115657 0 0)
(0.115546 0 0)
(0.115615 0 0)
(0.115618 0 0)
(0.115604 0 0)
(0.115618 0 0)
(0.115587 0 0)
(0.115606 0 0)
(0.115602 0 0)
(0.115621 0 0)
(0.115558 0 0)
(0.115628 0 0)
(0.115643 0 0)
(0.115512 0 0)
(0.115637 0 0)
(0.115627 0 0)
(0.115565 0 0)
(0.115596 0 0)
(0.115585 0 0)
(0.115606 0 0)
(0.115606 0 0)
(0.115536 0 0)
(0.115617 0 0)
(0.115626 0 0)
(0.11554 0 0)
(0.115605 0 0)
(0.115607 0 0)
(0.115513 0 0)
(0.115649 0 0)
(0.115619 0 0)
(0.11549 0 0)
(0.115623 0 0)
(0.115615 0 0)
(0.115538 0 0)
(0.115599 0 0)
(0.115589 0 0)
(0.115513 0 0)
(0.115629 0 0)
(0.115613 0 0)
(0.115543 0 0)
(0.115514 0 0)
(0.115611 0 0)
(0.115635 0 0)
(0.115472 0 0)
(0.115617 0 0)
(0.115607 0 0)
(0.115523 0 0)
(0.115584 0 0)
(0.115587 0 0)
(0.1155 0 0)
(0.115617 0 0)
(0.115598 0 0)
(0.115508 0 0)
(0.115585 0 0)
(0.115579 0 0)
(0.115538 0 0)
(0.115579 0 0)
(0.115529 0 0)
(0.115586 0 0)
(0.115587 0 0)
(0.115552 0 0)
(0.115499 0 0)
(0.115575 0 0)
(0.115632 0 0)
(0.115459 0 0)
(0.115596 0 0)
(0.115587 0 0)
(0.11555 0 0)
(0.115479 0 0)
(0.115588 0 0)
(0.115618 0 0)
(0.115445 0 0)
(0.115608 0 0)
(0.11559 0 0)
(0.115474 0 0)
(0.115574 0 0)
(0.11559 0 0)
(0.115501 0 0)
(0.115565 0 0)
(0.115524 0 0)
(0.115554 0 0)
(0.115574 0 0)
(0.115515 0 0)
(0.11557 0 0)
(0.115499 0 0)
(0.115567 0 0)
(0.115572 0 0)
(0.115532 0 0)
(0.11548 0 0)
(0.115554 0 0)
(0.115595 0 0)
(0.115487 0 0)
(0.115563 0 0)
(0.115535 0 0)
(0.115539 0 0)
(0.11552 0 0)
(0.115542 0 0)
(0.115561 0 0)
(0.115469 0 0)
(0.115594 0 0)
(0.115566 0 0)
(0.115434 0 0)
(0.115593 0 0)
(0.11556 0 0)
(0.115522 0 0)
(0.115466 0 0)
(0.115554 0 0)
(0.115593 0 0)
(0.115445 0 0)
(0.115573 0 0)
(0.115556 0 0)
(0.115477 0 0)
(0.11554 0 0)
(0.115566 0 0)
(0.115465 0 0)
(0.115561 0 0)
(0.115553 0 0)
(0.115449 0 0)
(0.115575 0 0)
(0.115557 0 0)
(0.115467 0 0)
(0.115547 0 0)
(0.115499 0 0)
(0.115535 0 0)
(0.115567 0 0)
(0.115493 0 0)
(0.115463 0 0)
(0.115553 0 0)
(0.115563 0 0)
(0.115463 0 0)
(0.115547 0 0)
(0.115502 0 0)
(0.115526 0 0)
(0.115541 0 0)
(0.115484 0 0)
(0.115515 0 0)
(0.115534 0 0)
(0.11551 0 0)
(0.115509 0 0)
(0.115522 0 0)
(0.115502 0 0)
(0.115538 0 0)
(0.115507 0 0)
(0.115481 0 0)
(0.115563 0 0)
(0.115458 0 0)
(0.115553 0 0)
(0.115534 0 0)
(0.11545 0 0)
(0.115562 0 0)
(0.11547 0 0)
(0.115543 0 0)
(0.115535 0 0)
(0.11543 0 0)
(0.115575 0 0)
(0.115529 0 0)
(0.11543 0 0)
(0.115552 0 0)
(0.115531 0 0)
(0.115502 0 0)
(0.115446 0 0)
(0.115548 0 0)
(0.115557 0 0)
(0.11541 0 0)
(0.115552 0 0)
(0.11554 0 0)
(0.115466 0 0)
(0.115517 0 0)
(0.115496 0 0)
(0.115518 0 0)
(0.115461 0 0)
(0.115554 0 0)
(0.115524 0 0)
(0.115441 0 0)
(0.115554 0 0)
(0.115456 0 0)
(0.115528 0 0)
(0.115533 0 0)
(0.115468 0 0)
(0.115484 0 0)
(0.115534 0 0)
(0.115532 0 0)
(0.115423 0 0)
(0.115543 0 0)
(0.115536 0 0)
(0.115454 0 0)
(0.115515 0 0)
(0.115511 0 0)
(0.115446 0 0)
(0.115543 0 0)
(0.115537 0 0)
(0.115469 0 0)
(0.115434 0 0)
(0.115542 0 0)
(0.115553 0 0)
(0.115401 0 0)
(0.115548 0 0)
(0.115521 0 0)
(0.115492 0 0)
(0.115444 0 0)
(0.115504 0 0)
(0.115555 0 0)
(0.115453 0 0)
(0.115517 0 0)
(0.115456 0 0)
(0.115524 0 0)
(0.115529 0 0)
(0.115437 0 0)
(0.115534 0 0)
(0.115501 0 0)
(0.115435 0 0)
(0.115544 0 0)
(0.115524 0 0)
(0.115448 0 0)
(0.115491 0 0)
(0.115508 0 0)
(0.115538 0 0)
(0.115417 0 0)
(0.115542 0 0)
(0.115525 0 0)
(0.115421 0 0)
(0.115547 0 0)
(0.115465 0 0)
(0.115511 0 0)
(0.11551 0 0)
(0.115489 0 0)
(0.115437 0 0)
(0.11551 0 0)
(0.115559 0 0)
(0.115406 0 0)
(0.115551 0 0)
(0.115467 0 0)
(0.115483 0 0)
(0.11553 0 0)
(0.115479 0 0)
(0.115494 0 0)
(0.11545 0 0)
(0.11553 0 0)
(0.115539 0 0)
(0.115397 0 0)
(0.115542 0 0)
(0.115527 0 0)
(0.115432 0 0)
(0.115528 0 0)
(0.115464 0 0)
(0.115525 0 0)
(0.115503 0 0)
(0.115438 0 0)
(0.115528 0 0)
(0.115475 0 0)
(0.115504 0 0)
(0.11549 0 0)
(0.1155 0 0)
(0.115468 0 0)
(0.115492 0 0)
(0.115489 0 0)
(0.115486 0 0)
)
;

boundaryField
{
    fixedWall
    {
        type            fixedValue;
        value           uniform (0 0 0);
    }
    outlet
    {
        type            pressureInletOutletVelocity;
        value           uniform (0.115486 0 0);
    }
    defaultFaces
    {
        type            empty;
    }
}


// ************************************************************************* //
