/*--------------------------------*- C++ -*----------------------------------*\
| =========                 |                                                 |
| \\      /  F ield         | OpenFOAM: The Open Source CFD Toolbox           |
|  \\    /   O peration     | Version:  2406                                  |
|   \\  /    A nd           | Website:  www.openfoam.com                      |
|    \\/     M anipulation  |                                                 |
\*---------------------------------------------------------------------------*/
FoamFile
{
    version     2.0;
    format      ascii;
    arch        "LSB;label=32;scalar=64";
    class       volScalarField;
    location    "13.5";
    object      O2;
}
// * * * * * * * * * * * * * * * * * * * * * * * * * * * * * * * * * * * * * //

dimensions      [0 0 0 0 0 0 0];

internalField   nonuniform List<scalar> 
1000
(
1.02225e-06
1.02083e-06
1.01823e-06
1.01461e-06
1.01011e-06
1.00485e-06
9.98901e-07
9.92343e-07
9.85237e-07
9.77637e-07
9.69589e-07
9.61135e-07
9.5231e-07
9.43149e-07
9.33679e-07
9.2393e-07
9.13925e-07
9.03687e-07
8.93238e-07
8.82597e-07
8.71784e-07
8.60814e-07
8.49704e-07
8.38471e-07
8.27127e-07
8.15688e-07
8.04167e-07
7.92575e-07
7.80926e-07
7.6923e-07
7.575e-07
7.45747e-07
7.3398e-07
7.22211e-07
7.10449e-07
6.98705e-07
6.86987e-07
6.75304e-07
6.63667e-07
6.52084e-07
6.40563e-07
6.29113e-07
6.17741e-07
6.06456e-07
5.95265e-07
5.84175e-07
5.73194e-07
5.62328e-07
5.51583e-07
5.40965e-07
5.30481e-07
5.20135e-07
5.09933e-07
4.9988e-07
4.89979e-07
4.80235e-07
4.70652e-07
4.61233e-07
4.5198e-07
4.42898e-07
4.33986e-07
4.25249e-07
4.16687e-07
4.08302e-07
4.00094e-07
3.92065e-07
3.84214e-07
3.76542e-07
3.69049e-07
3.61734e-07
3.54597e-07
3.47635e-07
3.4085e-07
3.34238e-07
3.27799e-07
3.21531e-07
3.15431e-07
3.09499e-07
3.03731e-07
2.98126e-07
2.9268e-07
2.87392e-07
2.82259e-07
2.77278e-07
2.72446e-07
2.67761e-07
2.63219e-07
2.58818e-07
2.54555e-07
2.50427e-07
2.4643e-07
2.42562e-07
2.3882e-07
2.35201e-07
2.31701e-07
2.28318e-07
2.2505e-07
2.21891e-07
2.18841e-07
2.15896e-07
2.13053e-07
2.10309e-07
2.07662e-07
2.05109e-07
2.02647e-07
2.00274e-07
1.97986e-07
1.95782e-07
1.93658e-07
1.91613e-07
1.89644e-07
1.87748e-07
1.85924e-07
1.84168e-07
1.8248e-07
1.80856e-07
1.79295e-07
1.77794e-07
1.76352e-07
1.74967e-07
1.73636e-07
1.72358e-07
1.71132e-07
1.69955e-07
1.68825e-07
1.67742e-07
1.66703e-07
1.65706e-07
1.64752e-07
1.63837e-07
1.62961e-07
1.62122e-07
1.61319e-07
1.6055e-07
1.59815e-07
1.59112e-07
1.5844e-07
1.57798e-07
1.57184e-07
1.56598e-07
1.56039e-07
1.55505e-07
1.54996e-07
1.54511e-07
1.54048e-07
1.53608e-07
1.53189e-07
1.5279e-07
1.52411e-07
1.5205e-07
1.51708e-07
1.51383e-07
1.51075e-07
1.50783e-07
1.50506e-07
1.50245e-07
1.49997e-07
1.49763e-07
1.49543e-07
1.49335e-07
1.49139e-07
1.48955e-07
1.48782e-07
1.4862e-07
1.48468e-07
1.48326e-07
1.48193e-07
1.4807e-07
1.47955e-07
1.47849e-07
1.47751e-07
1.4766e-07
1.47577e-07
1.47501e-07
1.47432e-07
1.47369e-07
1.47313e-07
1.47262e-07
1.47217e-07
1.47178e-07
1.47144e-07
1.47115e-07
1.47091e-07
1.47071e-07
1.47056e-07
1.47045e-07
1.47038e-07
1.47035e-07
1.47036e-07
1.4704e-07
1.47048e-07
1.47058e-07
1.47072e-07
1.47089e-07
1.47109e-07
1.47132e-07
1.47157e-07
1.47184e-07
1.47214e-07
1.47247e-07
1.47281e-07
1.47318e-07
1.47356e-07
1.47397e-07
1.47439e-07
1.47483e-07
1.47529e-07
1.47576e-07
1.47625e-07
1.47675e-07
1.47727e-07
1.47779e-07
1.47833e-07
1.47889e-07
1.47945e-07
1.48003e-07
1.48062e-07
1.48121e-07
1.48182e-07
1.48244e-07
1.48306e-07
1.48369e-07
1.48433e-07
1.48498e-07
1.48563e-07
1.4863e-07
1.48697e-07
1.48764e-07
1.48832e-07
1.48901e-07
1.4897e-07
1.4904e-07
1.4911e-07
1.49181e-07
1.49252e-07
1.49323e-07
1.49395e-07
1.49468e-07
1.49541e-07
1.49614e-07
1.49688e-07
1.49761e-07
1.49836e-07
1.4991e-07
1.49985e-07
1.5006e-07
1.50135e-07
1.50211e-07
1.50287e-07
1.50363e-07
1.50439e-07
1.50516e-07
1.50592e-07
1.50669e-07
1.50747e-07
1.50824e-07
1.50901e-07
1.50979e-07
1.51057e-07
1.51135e-07
1.51213e-07
1.51291e-07
1.5137e-07
1.51448e-07
1.51527e-07
1.51606e-07
1.51685e-07
1.51764e-07
1.51843e-07
1.51922e-07
1.52002e-07
1.52081e-07
1.52161e-07
1.52241e-07
1.52321e-07
1.524e-07
1.52481e-07
1.52561e-07
1.52641e-07
1.52721e-07
1.52802e-07
1.52882e-07
1.52963e-07
1.53043e-07
1.53124e-07
1.53205e-07
1.53286e-07
1.53367e-07
1.53448e-07
1.53529e-07
1.5361e-07
1.53691e-07
1.53773e-07
1.53854e-07
1.53936e-07
1.54017e-07
1.54099e-07
1.54181e-07
1.54262e-07
1.54344e-07
1.54426e-07
1.54508e-07
1.5459e-07
1.54673e-07
1.54755e-07
1.54837e-07
1.5492e-07
1.55002e-07
1.55085e-07
1.55167e-07
1.5525e-07
1.55333e-07
1.55416e-07
1.55498e-07
1.55581e-07
1.55665e-07
1.55748e-07
1.55831e-07
1.55914e-07
1.55998e-07
1.56081e-07
1.56165e-07
1.56248e-07
1.56332e-07
1.56415e-07
1.56499e-07
1.56583e-07
1.56667e-07
1.56751e-07
1.56835e-07
1.5692e-07
1.57004e-07
1.57088e-07
1.57173e-07
1.57258e-07
1.57342e-07
1.57427e-07
1.57512e-07
1.57597e-07
1.57682e-07
1.57767e-07
1.57852e-07
1.57937e-07
1.58022e-07
1.58108e-07
1.58193e-07
1.58279e-07
1.58365e-07
1.5845e-07
1.58536e-07
1.58622e-07
1.58708e-07
1.58794e-07
1.58881e-07
1.58967e-07
1.59053e-07
1.5914e-07
1.59226e-07
1.59313e-07
1.594e-07
1.59487e-07
1.59574e-07
1.59661e-07
1.59748e-07
1.59835e-07
1.59923e-07
1.6001e-07
1.60098e-07
1.60185e-07
1.60273e-07
1.60361e-07
1.60449e-07
1.60537e-07
1.60625e-07
1.60713e-07
1.60801e-07
1.6089e-07
1.60978e-07
1.61067e-07
1.61156e-07
1.61245e-07
1.61334e-07
1.61422e-07
1.61512e-07
1.61601e-07
1.6169e-07
1.6178e-07
1.61869e-07
1.61959e-07
1.62049e-07
1.62139e-07
1.62229e-07
1.62319e-07
1.62409e-07
1.62499e-07
1.62589e-07
1.6268e-07
1.62771e-07
1.62861e-07
1.62952e-07
1.63043e-07
1.63134e-07
1.63225e-07
1.63316e-07
1.63408e-07
1.63499e-07
1.63591e-07
1.63682e-07
1.63774e-07
1.63866e-07
1.63958e-07
1.6405e-07
1.64142e-07
1.64234e-07
1.64327e-07
1.64419e-07
1.64512e-07
1.64604e-07
1.64697e-07
1.6479e-07
1.64883e-07
1.64976e-07
1.6507e-07
1.65163e-07
1.65256e-07
1.6535e-07
1.65443e-07
1.65537e-07
1.65631e-07
1.65725e-07
1.65819e-07
1.65914e-07
1.66008e-07
1.66102e-07
1.66197e-07
1.66291e-07
1.66386e-07
1.66481e-07
1.66576e-07
1.66671e-07
1.66766e-07
1.66862e-07
1.66957e-07
1.67053e-07
1.67148e-07
1.67244e-07
1.6734e-07
1.67436e-07
1.67532e-07
1.67628e-07
1.67724e-07
1.67821e-07
1.67917e-07
1.68014e-07
1.6811e-07
1.68207e-07
1.68304e-07
1.68401e-07
1.68499e-07
1.68596e-07
1.68693e-07
1.68791e-07
1.68888e-07
1.68986e-07
1.69084e-07
1.69182e-07
1.6928e-07
1.69378e-07
1.69477e-07
1.69575e-07
1.69674e-07
1.69772e-07
1.69871e-07
1.6997e-07
1.70069e-07
1.70168e-07
1.70268e-07
1.70367e-07
1.70466e-07
1.70566e-07
1.70666e-07
1.70765e-07
1.70865e-07
1.70966e-07
1.71066e-07
1.71166e-07
1.71266e-07
1.71367e-07
1.71468e-07
1.71568e-07
1.71669e-07
1.7177e-07
1.71871e-07
1.71973e-07
1.72074e-07
1.72176e-07
1.72277e-07
1.72379e-07
1.72481e-07
1.72583e-07
1.72685e-07
1.72787e-07
1.7289e-07
1.72992e-07
1.73095e-07
1.73197e-07
1.733e-07
1.73403e-07
1.73506e-07
1.73609e-07
1.73713e-07
1.73816e-07
1.7392e-07
1.74023e-07
1.74127e-07
1.74231e-07
1.74335e-07
1.74439e-07
1.74544e-07
1.74648e-07
1.74753e-07
1.74857e-07
1.74962e-07
1.75067e-07
1.75172e-07
1.75278e-07
1.75382e-07
1.75488e-07
1.75594e-07
1.75699e-07
1.75805e-07
1.75911e-07
1.76017e-07
1.76123e-07
1.7623e-07
1.76336e-07
1.76443e-07
1.76549e-07
1.76656e-07
1.76763e-07
1.7687e-07
1.76978e-07
1.77085e-07
1.77192e-07
1.773e-07
1.77408e-07
1.77516e-07
1.77624e-07
1.77732e-07
1.7784e-07
1.77948e-07
1.78057e-07
1.78166e-07
1.78274e-07
1.78383e-07
1.78492e-07
1.78602e-07
1.78711e-07
1.7882e-07
1.7893e-07
1.7904e-07
1.79149e-07
1.79259e-07
1.79369e-07
1.7948e-07
1.7959e-07
1.79701e-07
1.79811e-07
1.79922e-07
1.80033e-07
1.80144e-07
1.80255e-07
1.80366e-07
1.80478e-07
1.8059e-07
1.80701e-07
1.80813e-07
1.80925e-07
1.81037e-07
1.8115e-07
1.81262e-07
1.81374e-07
1.81487e-07
1.816e-07
1.81713e-07
1.81826e-07
1.8194e-07
1.82053e-07
1.82167e-07
1.8228e-07
1.82394e-07
1.82508e-07
1.82622e-07
1.82737e-07
1.82851e-07
1.82966e-07
1.8308e-07
1.83195e-07
1.8331e-07
1.83425e-07
1.83541e-07
1.83656e-07
1.83772e-07
1.83888e-07
1.84003e-07
1.8412e-07
1.84236e-07
1.84352e-07
1.84469e-07
1.84585e-07
1.84702e-07
1.84819e-07
1.84936e-07
1.85053e-07
1.85171e-07
1.85288e-07
1.85406e-07
1.85524e-07
1.85642e-07
1.8576e-07
1.85878e-07
1.85997e-07
1.86115e-07
1.86234e-07
1.86353e-07
1.86472e-07
1.86591e-07
1.8671e-07
1.8683e-07
1.8695e-07
1.87069e-07
1.87189e-07
1.8731e-07
1.8743e-07
1.8755e-07
1.87671e-07
1.87792e-07
1.87913e-07
1.88034e-07
1.88155e-07
1.88276e-07
1.88398e-07
1.8852e-07
1.88641e-07
1.88763e-07
1.88886e-07
1.89008e-07
1.8913e-07
1.89253e-07
1.89376e-07
1.89499e-07
1.89622e-07
1.89745e-07
1.89869e-07
1.89992e-07
1.90116e-07
1.9024e-07
1.90364e-07
1.90488e-07
1.90613e-07
1.90737e-07
1.90862e-07
1.90987e-07
1.91112e-07
1.91237e-07
1.91363e-07
1.91488e-07
1.91614e-07
1.9174e-07
1.91866e-07
1.91992e-07
1.92118e-07
1.92245e-07
1.92372e-07
1.92498e-07
1.92625e-07
1.92753e-07
1.9288e-07
1.93007e-07
1.93135e-07
1.93263e-07
1.93391e-07
1.93519e-07
1.93648e-07
1.93776e-07
1.93905e-07
1.94033e-07
1.94162e-07
1.94291e-07
1.9442e-07
1.9455e-07
1.94679e-07
1.94809e-07
1.94939e-07
1.95069e-07
1.952e-07
1.9533e-07
1.95461e-07
1.95592e-07
1.95723e-07
1.95854e-07
1.95985e-07
1.96117e-07
1.96249e-07
1.96381e-07
1.96513e-07
1.96644e-07
1.96777e-07
1.96909e-07
1.97042e-07
1.97175e-07
1.97308e-07
1.97442e-07
1.97575e-07
1.97709e-07
1.97843e-07
1.97977e-07
1.98111e-07
1.98245e-07
1.9838e-07
1.98515e-07
1.9865e-07
1.98785e-07
1.9892e-07
1.99056e-07
1.99192e-07
1.99328e-07
1.99464e-07
1.996e-07
1.99737e-07
1.99874e-07
2.00011e-07
2.00148e-07
2.00286e-07
2.00423e-07
2.00561e-07
2.00699e-07
2.00838e-07
2.00976e-07
2.01115e-07
2.01254e-07
2.01393e-07
2.01533e-07
2.01672e-07
2.01812e-07
2.01953e-07
2.02093e-07
2.02234e-07
2.02375e-07
2.02516e-07
2.02658e-07
2.028e-07
2.02942e-07
2.03084e-07
2.03227e-07
2.0337e-07
2.03514e-07
2.03657e-07
2.03801e-07
2.03946e-07
2.04091e-07
2.04236e-07
2.04381e-07
2.04527e-07
2.04674e-07
2.0482e-07
2.04968e-07
2.05115e-07
2.05264e-07
2.05412e-07
2.05562e-07
2.05711e-07
2.05862e-07
2.06013e-07
2.06164e-07
2.06317e-07
2.0647e-07
2.06624e-07
2.06778e-07
2.06933e-07
2.0709e-07
2.07247e-07
2.07405e-07
2.07564e-07
2.07724e-07
2.07885e-07
2.08048e-07
2.08211e-07
2.08376e-07
2.08543e-07
2.0871e-07
2.0888e-07
2.09051e-07
2.09224e-07
2.09398e-07
2.09575e-07
2.09753e-07
2.09934e-07
2.10117e-07
2.10303e-07
2.10491e-07
2.10682e-07
2.10876e-07
2.11072e-07
2.11272e-07
2.11476e-07
2.11683e-07
2.11894e-07
2.12109e-07
2.12329e-07
2.12553e-07
2.12781e-07
2.13015e-07
2.13255e-07
2.135e-07
2.13751e-07
2.14008e-07
2.14273e-07
2.14544e-07
2.14823e-07
2.1511e-07
2.15405e-07
2.1571e-07
2.16023e-07
2.16347e-07
2.16681e-07
2.17026e-07
2.17383e-07
2.17752e-07
2.18134e-07
2.1853e-07
2.1894e-07
2.19366e-07
2.19807e-07
2.20265e-07
2.20741e-07
2.21236e-07
2.2175e-07
2.22285e-07
2.22842e-07
2.23422e-07
2.24026e-07
2.24655e-07
2.2531e-07
2.25994e-07
2.26707e-07
2.2745e-07
2.28226e-07
2.29036e-07
2.29882e-07
2.30764e-07
2.31686e-07
2.32648e-07
2.33654e-07
2.34704e-07
2.35802e-07
2.36949e-07
2.38147e-07
2.39399e-07
2.40707e-07
2.42075e-07
2.43504e-07
2.44997e-07
2.46557e-07
2.48188e-07
2.49891e-07
2.51671e-07
2.5353e-07
2.55473e-07
2.57501e-07
2.5962e-07
2.61832e-07
2.64142e-07
2.66554e-07
2.69071e-07
2.71697e-07
2.74437e-07
2.77296e-07
2.80278e-07
2.83386e-07
2.86628e-07
2.90006e-07
2.93525e-07
2.97192e-07
3.01011e-07
3.04987e-07
3.09126e-07
3.13433e-07
3.17913e-07
3.22572e-07
3.27416e-07
3.3245e-07
3.3768e-07
3.43111e-07
3.48749e-07
3.546e-07
3.6067e-07
3.66964e-07
3.73487e-07
3.80246e-07
3.87244e-07
3.94488e-07
4.01983e-07
4.09732e-07
4.17741e-07
4.26014e-07
4.34555e-07
4.43368e-07
4.52454e-07
4.61818e-07
4.71461e-07
4.81385e-07
4.91591e-07
5.02079e-07
5.12848e-07
5.23898e-07
5.35225e-07
5.46828e-07
5.587e-07
5.70839e-07
5.83236e-07
5.95884e-07
6.08773e-07
6.21894e-07
6.35235e-07
6.4878e-07
6.62517e-07
6.76426e-07
6.9049e-07
7.04688e-07
7.18997e-07
7.33393e-07
7.47849e-07
7.62337e-07
7.76827e-07
7.91286e-07
8.05679e-07
8.19969e-07
8.3412e-07
8.48089e-07
8.61835e-07
8.75314e-07
8.88481e-07
9.01288e-07
9.13688e-07
9.25631e-07
9.37066e-07
9.47942e-07
9.58207e-07
9.6781e-07
9.76697e-07
9.84816e-07
9.92115e-07
9.98543e-07
1.00405e-06
1.00858e-06
1.0121e-06
1.01455e-06
1.01587e-06
1.01605e-06
1.01503e-06
1.01277e-06
1.00925e-06
1.00442e-06
9.98246e-07
9.9071e-07
9.81782e-07
9.71441e-07
9.59667e-07
9.46444e-07
9.31762e-07
9.1561e-07
8.97986e-07
8.78888e-07
8.58321e-07
8.36292e-07
8.12815e-07
7.87908e-07
7.61595e-07
7.33904e-07
7.04871e-07
6.74539e-07
6.42957e-07
6.10183e-07
5.76282e-07
5.41329e-07
5.05412e-07
4.68626e-07
4.31082e-07
3.92903e-07
3.54228e-07
3.15211e-07
2.76025e-07
2.36863e-07
1.97938e-07
1.59484e-07
1.21761e-07
8.50488e-08
4.96508e-08
1.58902e-08
)
;

boundaryField
{
    fixedWall
    {
        type            zeroGradient;
    }
    outlet
    {
        type            inletOutlet;
        inletValue      uniform 0;
        value           uniform 0;
    }
    defaultFaces
    {
        type            empty;
    }
}


// ************************************************************************* //
