/*--------------------------------*- C++ -*----------------------------------*\
| =========                 |                                                 |
| \\      /  F ield         | OpenFOAM: The Open Source CFD Toolbox           |
|  \\    /   O peration     | Version:  2406                                  |
|   \\  /    A nd           | Website:  www.openfoam.com                      |
|    \\/     M anipulation  |                                                 |
\*---------------------------------------------------------------------------*/
FoamFile
{
    version     2.0;
    format      ascii;
    arch        "LSB;label=32;scalar=64";
    class       surfaceScalarField;
    location    "13.5";
    object      phi;
}
// * * * * * * * * * * * * * * * * * * * * * * * * * * * * * * * * * * * * * //

dimensions      [1 0 -1 0 0 0 0];

oriented        oriented;

internalField   nonuniform List<scalar> 
999
(
-1.16768e-08
-3.97153e-08
-7.8592e-08
-1.24801e-07
-1.76025e-07
-2.30679e-07
-2.87656e-07
-3.46165e-07
-4.05629e-07
-4.65629e-07
-5.25858e-07
-5.86073e-07
-6.46096e-07
-7.05794e-07
-7.65063e-07
-8.23827e-07
-8.82029e-07
-9.39618e-07
-9.96567e-07
-1.05284e-06
-1.10844e-06
-1.16334e-06
-1.21754e-06
-1.27102e-06
-1.3238e-06
-1.37586e-06
-1.42723e-06
-1.47789e-06
-1.52785e-06
-1.57712e-06
-1.6257e-06
-1.67361e-06
-1.72084e-06
-1.7674e-06
-1.81331e-06
-1.85856e-06
-1.90317e-06
-1.94715e-06
-1.99049e-06
-2.03322e-06
-2.07533e-06
-2.11683e-06
-2.15773e-06
-2.19805e-06
-2.23777e-06
-2.27692e-06
-2.31549e-06
-2.3535e-06
-2.39095e-06
-2.42784e-06
-2.46419e-06
-2.5e-06
-2.53527e-06
-2.57002e-06
-2.60424e-06
-2.63794e-06
-2.67114e-06
-2.70382e-06
-2.736e-06
-2.76769e-06
-2.79889e-06
-2.82961e-06
-2.85984e-06
-2.8896e-06
-2.91889e-06
-2.94771e-06
-2.97608e-06
-3.00399e-06
-3.03145e-06
-3.05846e-06
-3.08503e-06
-3.11117e-06
-3.13687e-06
-3.16215e-06
-3.18701e-06
-3.21144e-06
-3.23547e-06
-3.25908e-06
-3.28229e-06
-3.3051e-06
-3.32751e-06
-3.34953e-06
-3.37116e-06
-3.39241e-06
-3.41328e-06
-3.43378e-06
-3.4539e-06
-3.47366e-06
-3.49306e-06
-3.51209e-06
-3.53078e-06
-3.54911e-06
-3.5671e-06
-3.58475e-06
-3.60206e-06
-3.61904e-06
-3.63568e-06
-3.65201e-06
-3.66801e-06
-3.6837e-06
-3.69907e-06
-3.71413e-06
-3.72889e-06
-3.74335e-06
-3.75752e-06
-3.77139e-06
-3.78496e-06
-3.79826e-06
-3.81128e-06
-3.82401e-06
-3.83648e-06
-3.84867e-06
-3.8606e-06
-3.87227e-06
-3.88369e-06
-3.89484e-06
-3.90575e-06
-3.91641e-06
-3.92683e-06
-3.93702e-06
-3.94696e-06
-3.95668e-06
-3.96617e-06
-3.97544e-06
-3.98449e-06
-3.99332e-06
-4.00194e-06
-4.01035e-06
-4.01855e-06
-4.02656e-06
-4.03436e-06
-4.04197e-06
-4.0494e-06
-4.05663e-06
-4.06368e-06
-4.07055e-06
-4.07724e-06
-4.08376e-06
-4.09011e-06
-4.09629e-06
-4.10231e-06
-4.10816e-06
-4.11386e-06
-4.11941e-06
-4.12481e-06
-4.13006e-06
-4.13516e-06
-4.14012e-06
-4.14494e-06
-4.14963e-06
-4.15419e-06
-4.15861e-06
-4.16291e-06
-4.16709e-06
-4.17114e-06
-4.17507e-06
-4.17889e-06
-4.1826e-06
-4.18619e-06
-4.18968e-06
-4.19306e-06
-4.19634e-06
-4.19952e-06
-4.2026e-06
-4.20559e-06
-4.20848e-06
-4.21128e-06
-4.21399e-06
-4.21661e-06
-4.21917e-06
-4.22164e-06
-4.22403e-06
-4.22634e-06
-4.22858e-06
-4.23075e-06
-4.23285e-06
-4.23486e-06
-4.23681e-06
-4.23869e-06
-4.2405e-06
-4.24225e-06
-4.24393e-06
-4.24556e-06
-4.24715e-06
-4.24868e-06
-4.25016e-06
-4.25158e-06
-4.25295e-06
-4.25427e-06
-4.25554e-06
-4.25677e-06
-4.25796e-06
-4.25911e-06
-4.26022e-06
-4.26129e-06
-4.26232e-06
-4.26331e-06
-4.26426e-06
-4.26517e-06
-4.26605e-06
-4.26689e-06
-4.2677e-06
-4.26848e-06
-4.26924e-06
-4.26996e-06
-4.27066e-06
-4.27133e-06
-4.27197e-06
-4.27259e-06
-4.27318e-06
-4.27375e-06
-4.2743e-06
-4.27482e-06
-4.27533e-06
-4.27581e-06
-4.27627e-06
-4.27671e-06
-4.27714e-06
-4.27754e-06
-4.27794e-06
-4.27831e-06
-4.27867e-06
-4.27901e-06
-4.27934e-06
-4.27966e-06
-4.27996e-06
-4.28024e-06
-4.28052e-06
-4.28078e-06
-4.28103e-06
-4.28127e-06
-4.2815e-06
-4.28172e-06
-4.28193e-06
-4.28213e-06
-4.28232e-06
-4.28251e-06
-4.28268e-06
-4.28285e-06
-4.28301e-06
-4.28316e-06
-4.2833e-06
-4.28344e-06
-4.28357e-06
-4.28369e-06
-4.28381e-06
-4.28393e-06
-4.28403e-06
-4.28414e-06
-4.28423e-06
-4.28432e-06
-4.28441e-06
-4.28449e-06
-4.28457e-06
-4.28465e-06
-4.28472e-06
-4.28478e-06
-4.28485e-06
-4.28491e-06
-4.28497e-06
-4.28502e-06
-4.28507e-06
-4.28512e-06
-4.28516e-06
-4.28521e-06
-4.28525e-06
-4.28528e-06
-4.28532e-06
-4.28535e-06
-4.28539e-06
-4.28542e-06
-4.28544e-06
-4.28547e-06
-4.28549e-06
-4.28552e-06
-4.28554e-06
-4.28556e-06
-4.28558e-06
-4.2856e-06
-4.28561e-06
-4.28563e-06
-4.28564e-06
-4.28565e-06
-4.28567e-06
-4.28568e-06
-4.28569e-06
-4.2857e-06
-4.2857e-06
-4.28571e-06
-4.28572e-06
-4.28573e-06
-4.28573e-06
-4.28574e-06
-4.28574e-06
-4.28575e-06
-4.28575e-06
-4.28575e-06
-4.28576e-06
-4.28576e-06
-4.28576e-06
-4.28576e-06
-4.28576e-06
-4.28577e-06
-4.28577e-06
-4.28577e-06
-4.28577e-06
-4.28577e-06
-4.28577e-06
-4.28577e-06
-4.28577e-06
-4.28577e-06
-4.28577e-06
-4.28577e-06
-4.28577e-06
-4.28576e-06
-4.28576e-06
-4.28576e-06
-4.28576e-06
-4.28576e-06
-4.28576e-06
-4.28575e-06
-4.28575e-06
-4.28575e-06
-4.28575e-06
-4.28575e-06
-4.28574e-06
-4.28574e-06
-4.28574e-06
-4.28574e-06
-4.28573e-06
-4.28573e-06
-4.28573e-06
-4.28573e-06
-4.28573e-06
-4.28572e-06
-4.28572e-06
-4.28572e-06
-4.28572e-06
-4.28572e-06
-4.28571e-06
-4.28571e-06
-4.28571e-06
-4.28571e-06
-4.28571e-06
-4.28571e-06
-4.2857e-06
-4.2857e-06
-4.2857e-06
-4.2857e-06
-4.2857e-06
-4.2857e-06
-4.2857e-06
-4.28569e-06
-4.28569e-06
-4.28569e-06
-4.28569e-06
-4.28569e-06
-4.28569e-06
-4.28569e-06
-4.28569e-06
-4.28568e-06
-4.28568e-06
-4.28568e-06
-4.28568e-06
-4.28568e-06
-4.28568e-06
-4.28568e-06
-4.28568e-06
-4.28568e-06
-4.28568e-06
-4.28568e-06
-4.28568e-06
-4.28568e-06
-4.28568e-06
-4.28568e-06
-4.28568e-06
-4.28568e-06
-4.28568e-06
-4.28568e-06
-4.28568e-06
-4.28568e-06
-4.28568e-06
-4.28568e-06
-4.28568e-06
-4.28568e-06
-4.28568e-06
-4.28568e-06
-4.28568e-06
-4.28568e-06
-4.28568e-06
-4.28568e-06
-4.28568e-06
-4.28568e-06
-4.28568e-06
-4.28568e-06
-4.28568e-06
-4.28568e-06
-4.28568e-06
-4.28568e-06
-4.28568e-06
-4.28568e-06
-4.28568e-06
-4.28568e-06
-4.28568e-06
-4.28568e-06
-4.28568e-06
-4.28569e-06
-4.28569e-06
-4.28569e-06
-4.28569e-06
-4.28569e-06
-4.28569e-06
-4.28569e-06
-4.28569e-06
-4.28569e-06
-4.28569e-06
-4.28569e-06
-4.28569e-06
-4.28569e-06
-4.28569e-06
-4.28569e-06
-4.28569e-06
-4.28569e-06
-4.28569e-06
-4.28569e-06
-4.28569e-06
-4.28569e-06
-4.28569e-06
-4.28569e-06
-4.28569e-06
-4.28569e-06
-4.28569e-06
-4.28569e-06
-4.28569e-06
-4.28569e-06
-4.28569e-06
-4.28569e-06
-4.28569e-06
-4.28569e-06
-4.28569e-06
-4.28569e-06
-4.28569e-06
-4.28569e-06
-4.28569e-06
-4.28569e-06
-4.2857e-06
-4.28569e-06
-4.28569e-06
-4.28569e-06
-4.2857e-06
-4.28569e-06
-4.2857e-06
-4.2857e-06
-4.2857e-06
-4.2857e-06
-4.2857e-06
-4.2857e-06
-4.2857e-06
-4.2857e-06
-4.2857e-06
-4.2857e-06
-4.2857e-06
-4.2857e-06
-4.2857e-06
-4.2857e-06
-4.2857e-06
-4.2857e-06
-4.2857e-06
-4.2857e-06
-4.2857e-06
-4.2857e-06
-4.2857e-06
-4.2857e-06
-4.2857e-06
-4.2857e-06
-4.2857e-06
-4.2857e-06
-4.2857e-06
-4.2857e-06
-4.2857e-06
-4.2857e-06
-4.2857e-06
-4.2857e-06
-4.2857e-06
-4.2857e-06
-4.2857e-06
-4.2857e-06
-4.2857e-06
-4.2857e-06
-4.2857e-06
-4.2857e-06
-4.2857e-06
-4.2857e-06
-4.2857e-06
-4.2857e-06
-4.2857e-06
-4.2857e-06
-4.2857e-06
-4.2857e-06
-4.2857e-06
-4.2857e-06
-4.2857e-06
-4.2857e-06
-4.2857e-06
-4.2857e-06
-4.28569e-06
-4.28569e-06
-4.28569e-06
-4.28569e-06
-4.28569e-06
-4.28569e-06
-4.28569e-06
-4.28569e-06
-4.28569e-06
-4.28569e-06
-4.28569e-06
-4.28569e-06
-4.28569e-06
-4.28569e-06
-4.28569e-06
-4.28569e-06
-4.28569e-06
-4.28569e-06
-4.28569e-06
-4.28569e-06
-4.28569e-06
-4.28569e-06
-4.28568e-06
-4.28568e-06
-4.28568e-06
-4.28568e-06
-4.28568e-06
-4.28568e-06
-4.28568e-06
-4.28568e-06
-4.28568e-06
-4.28568e-06
-4.28568e-06
-4.28568e-06
-4.28568e-06
-4.28568e-06
-4.28568e-06
-4.28568e-06
-4.28568e-06
-4.28568e-06
-4.28568e-06
-4.28568e-06
-4.28568e-06
-4.28568e-06
-4.28568e-06
-4.28567e-06
-4.28567e-06
-4.28567e-06
-4.28567e-06
-4.28567e-06
-4.28567e-06
-4.28567e-06
-4.28567e-06
-4.28567e-06
-4.28567e-06
-4.28567e-06
-4.28567e-06
-4.28567e-06
-4.28567e-06
-4.28567e-06
-4.28567e-06
-4.28567e-06
-4.28567e-06
-4.28567e-06
-4.28567e-06
-4.28567e-06
-4.28567e-06
-4.28567e-06
-4.28567e-06
-4.28567e-06
-4.28567e-06
-4.28567e-06
-4.28567e-06
-4.28567e-06
-4.28567e-06
-4.28566e-06
-4.28566e-06
-4.28566e-06
-4.28566e-06
-4.28566e-06
-4.28566e-06
-4.28566e-06
-4.28566e-06
-4.28566e-06
-4.28566e-06
-4.28566e-06
-4.28566e-06
-4.28566e-06
-4.28566e-06
-4.28566e-06
-4.28566e-06
-4.28566e-06
-4.28566e-06
-4.28566e-06
-4.28566e-06
-4.28566e-06
-4.28566e-06
-4.28566e-06
-4.28566e-06
-4.28566e-06
-4.28566e-06
-4.28566e-06
-4.28566e-06
-4.28566e-06
-4.28566e-06
-4.28566e-06
-4.28566e-06
-4.28566e-06
-4.28566e-06
-4.28566e-06
-4.28566e-06
-4.28566e-06
-4.28566e-06
-4.28566e-06
-4.28566e-06
-4.28566e-06
-4.28566e-06
-4.28566e-06
-4.28566e-06
-4.28566e-06
-4.28566e-06
-4.28566e-06
-4.28566e-06
-4.28566e-06
-4.28566e-06
-4.28566e-06
-4.28566e-06
-4.28566e-06
-4.28566e-06
-4.28566e-06
-4.28566e-06
-4.28566e-06
-4.28566e-06
-4.28566e-06
-4.28566e-06
-4.28566e-06
-4.28566e-06
-4.28566e-06
-4.28566e-06
-4.28566e-06
-4.28566e-06
-4.28566e-06
-4.28566e-06
-4.28566e-06
-4.28566e-06
-4.28566e-06
-4.28566e-06
-4.28566e-06
-4.28565e-06
-4.28566e-06
-4.28565e-06
-4.28565e-06
-4.28565e-06
-4.28565e-06
-4.28565e-06
-4.28565e-06
-4.28565e-06
-4.28565e-06
-4.28565e-06
-4.28565e-06
-4.28565e-06
-4.28565e-06
-4.28565e-06
-4.28564e-06
-4.28564e-06
-4.28564e-06
-4.28564e-06
-4.28564e-06
-4.28564e-06
-4.28564e-06
-4.28564e-06
-4.28564e-06
-4.28564e-06
-4.28564e-06
-4.28564e-06
-4.28563e-06
-4.28563e-06
-4.28563e-06
-4.28563e-06
-4.28563e-06
-4.28563e-06
-4.28563e-06
-4.28563e-06
-4.28563e-06
-4.28563e-06
-4.28563e-06
-4.28563e-06
-4.28563e-06
-4.28563e-06
-4.28563e-06
-4.28563e-06
-4.28563e-06
-4.28563e-06
-4.28563e-06
-4.28563e-06
-4.28563e-06
-4.28563e-06
-4.28563e-06
-4.28564e-06
-4.28564e-06
-4.28564e-06
-4.28564e-06
-4.28564e-06
-4.28565e-06
-4.28565e-06
-4.28565e-06
-4.28565e-06
-4.28566e-06
-4.28566e-06
-4.28566e-06
-4.28567e-06
-4.28567e-06
-4.28568e-06
-4.28568e-06
-4.28569e-06
-4.28569e-06
-4.2857e-06
-4.28571e-06
-4.28571e-06
-4.28572e-06
-4.28573e-06
-4.28574e-06
-4.28575e-06
-4.28576e-06
-4.28577e-06
-4.28579e-06
-4.2858e-06
-4.28581e-06
-4.28583e-06
-4.28585e-06
-4.28586e-06
-4.28588e-06
-4.2859e-06
-4.28593e-06
-4.28595e-06
-4.28598e-06
-4.286e-06
-4.28603e-06
-4.28606e-06
-4.2861e-06
-4.28613e-06
-4.28617e-06
-4.28621e-06
-4.28626e-06
-4.2863e-06
-4.28635e-06
-4.28641e-06
-4.28646e-06
-4.28652e-06
-4.28659e-06
-4.28666e-06
-4.28673e-06
-4.28681e-06
-4.2869e-06
-4.28699e-06
-4.28708e-06
-4.28719e-06
-4.28729e-06
-4.28741e-06
-4.28754e-06
-4.28767e-06
-4.28781e-06
-4.28796e-06
-4.28812e-06
-4.28829e-06
-4.28847e-06
-4.28866e-06
-4.28886e-06
-4.28908e-06
-4.28931e-06
-4.28956e-06
-4.28982e-06
-4.29009e-06
-4.29039e-06
-4.2907e-06
-4.29103e-06
-4.29138e-06
-4.29175e-06
-4.29214e-06
-4.29256e-06
-4.293e-06
-4.29347e-06
-4.29396e-06
-4.29449e-06
-4.29504e-06
-4.29563e-06
-4.29625e-06
-4.29691e-06
-4.2976e-06
-4.29833e-06
-4.29911e-06
-4.29993e-06
-4.30079e-06
-4.3017e-06
-4.30266e-06
-4.30368e-06
-4.30475e-06
-4.30588e-06
-4.30706e-06
-4.30831e-06
-4.30963e-06
-4.31102e-06
-4.31248e-06
-4.31401e-06
-4.31563e-06
-4.31733e-06
-4.31912e-06
-4.32099e-06
-4.32296e-06
-4.32503e-06
-4.32721e-06
-4.32949e-06
-4.33188e-06
-4.33439e-06
-4.33702e-06
-4.33978e-06
-4.34267e-06
-4.3457e-06
-4.34887e-06
-4.35219e-06
-4.35566e-06
-4.3593e-06
-4.3631e-06
-4.36707e-06
-4.37123e-06
-4.37557e-06
-4.3801e-06
-4.38484e-06
-4.38978e-06
-4.39494e-06
-4.40032e-06
-4.40593e-06
-4.41178e-06
-4.41789e-06
-4.42424e-06
-4.43086e-06
-4.43776e-06
-4.44494e-06
-4.45241e-06
-4.46018e-06
-4.46826e-06
-4.47666e-06
-4.4854e-06
-4.49448e-06
-4.5039e-06
-4.5137e-06
-4.52386e-06
-4.53441e-06
-4.54536e-06
-4.55672e-06
-4.56849e-06
-4.5807e-06
-4.59335e-06
-4.60645e-06
-4.62002e-06
-4.63408e-06
-4.64862e-06
-4.66367e-06
-4.67925e-06
-4.69535e-06
-4.71201e-06
-4.72922e-06
-4.747e-06
-4.76538e-06
-4.78436e-06
-4.80395e-06
-4.82417e-06
-4.84505e-06
-4.86658e-06
-4.88878e-06
-4.91168e-06
-4.93528e-06
-4.95961e-06
-4.98467e-06
-5.01048e-06
-5.03706e-06
-5.06443e-06
-5.09259e-06
-5.12157e-06
-5.15139e-06
-5.18205e-06
-5.21358e-06
-5.24599e-06
-5.2793e-06
-5.31352e-06
-5.34868e-06
-5.38478e-06
-5.42185e-06
-5.45991e-06
-5.49897e-06
-5.53905e-06
-5.58016e-06
-5.62233e-06
-5.66557e-06
-5.7099e-06
-5.75534e-06
-5.80191e-06
-5.84962e-06
-5.89849e-06
-5.94855e-06
-5.9998e-06
-6.05228e-06
-6.10599e-06
-6.16096e-06
-6.21721e-06
-6.27476e-06
-6.33362e-06
-6.39381e-06
-6.45537e-06
-6.5183e-06
-6.58263e-06
-6.64837e-06
-6.71555e-06
-6.78419e-06
-6.85432e-06
-6.92594e-06
-6.99909e-06
-7.07379e-06
-7.15006e-06
-7.22792e-06
-7.3074e-06
-7.38852e-06
-7.47131e-06
-7.55578e-06
-7.64198e-06
-7.72991e-06
-7.81962e-06
-7.91112e-06
-8.00444e-06
-8.09962e-06
-8.19668e-06
-8.29565e-06
-8.39657e-06
-8.49946e-06
-8.60436e-06
-8.7113e-06
-8.82032e-06
-8.93144e-06
-9.04472e-06
-9.16019e-06
-9.27788e-06
-9.39784e-06
-9.52011e-06
-9.64475e-06
-9.77179e-06
-9.90128e-06
-1.00333e-05
-1.01679e-05
-1.03051e-05
-1.04451e-05
-1.05878e-05
-1.07334e-05
-1.0882e-05
-1.10321e-05
-1.11853e-05
-1.13417e-05
-1.15013e-05
-1.16642e-05
-1.18304e-05
-1.19999e-05
-1.21729e-05
-1.23494e-05
-1.25294e-05
-1.27129e-05
-1.29001e-05
-1.3091e-05
-1.32855e-05
-1.34838e-05
-1.36859e-05
-1.38918e-05
-1.41015e-05
-1.43149e-05
-1.4532e-05
-1.47527e-05
-1.49769e-05
-1.52043e-05
-1.54347e-05
-1.56678e-05
-1.59032e-05
-1.61403e-05
-1.63785e-05
-1.6617e-05
-1.68547e-05
-1.70904e-05
-1.73227e-05
-1.75499e-05
-1.77697e-05
-1.79797e-05
-1.81769e-05
-1.83577e-05
-1.85181e-05
-1.86533e-05
-1.87578e-05
-1.88256e-05
)
;

boundaryField
{
    fixedWall
    {
        type            calculated;
        value           uniform 0;
    }
    outlet
    {
        type            calculated;
        value           uniform -1.88498e-05;
    }
    defaultFaces
    {
        type            empty;
    }
}


// ************************************************************************* //
