/*--------------------------------*- C++ -*----------------------------------*\
| =========                 |                                                 |
| \\      /  F ield         | OpenFOAM: The Open Source CFD Toolbox           |
|  \\    /   O peration     | Version:  2406                                  |
|   \\  /    A nd           | Website:  www.openfoam.com                      |
|    \\/     M anipulation  |                                                 |
\*---------------------------------------------------------------------------*/
FoamFile
{
    version     2.0;
    format      ascii;
    arch        "LSB;label=32;scalar=64";
    class       volScalarField;
    location    "13.5";
    object      T;
}
// * * * * * * * * * * * * * * * * * * * * * * * * * * * * * * * * * * * * * //

dimensions      [0 0 0 1 0 0 0];

internalField   nonuniform List<scalar> 
1000
(
304.007
324.506
343.656
361.652
378.643
394.748
410.066
424.674
438.64
452.021
464.864
477.213
489.103
500.566
511.631
522.323
532.665
542.677
552.376
561.78
570.904
579.761
588.364
596.724
604.853
612.759
620.452
627.94
635.232
642.334
649.254
655.997
662.571
668.98
675.23
681.326
687.273
693.075
698.736
704.261
709.654
714.918
720.057
725.074
729.972
734.755
739.425
743.985
748.439
752.788
757.035
761.183
765.234
769.19
773.053
776.827
780.511
784.11
787.624
791.056
794.406
797.679
800.873
803.993
807.038
810.012
812.914
815.748
818.513
821.213
823.847
826.418
828.927
831.376
833.764
836.095
838.368
840.586
842.749
844.858
846.915
848.921
850.877
852.784
854.643
856.454
858.22
859.941
861.617
863.251
864.842
866.392
867.902
869.372
870.804
872.198
873.555
874.876
876.162
877.413
878.63
879.814
880.967
882.087
883.177
884.237
885.267
886.269
887.243
888.189
889.109
890.002
890.87
891.714
892.532
893.328
894.1
894.849
895.577
896.283
896.968
897.633
898.278
898.903
899.51
900.098
900.668
901.221
901.757
902.276
902.779
903.266
903.738
904.196
904.638
905.067
905.481
905.883
906.271
906.647
907.011
907.362
907.702
908.031
908.349
908.656
908.953
909.24
909.517
909.785
910.043
910.293
910.534
910.767
910.991
911.208
911.417
911.618
911.813
912
912.181
912.355
912.523
912.685
912.841
912.991
913.135
913.275
913.409
913.537
913.662
913.781
913.896
914.006
914.113
914.215
914.313
914.407
914.498
914.585
914.669
914.749
914.826
914.9
914.971
915.04
915.105
915.168
915.228
915.286
915.341
915.394
915.445
915.494
915.54
915.585
915.628
915.669
915.708
915.746
915.782
915.816
915.849
915.88
915.91
915.939
915.966
915.993
916.018
916.042
916.064
916.086
916.107
916.127
916.146
916.164
916.181
916.197
916.213
916.228
916.242
916.255
916.268
916.28
916.292
916.303
916.313
916.323
916.333
916.342
916.35
916.358
916.366
916.373
916.38
916.387
916.393
916.399
916.405
916.41
916.415
916.42
916.424
916.428
916.432
916.436
916.44
916.443
916.446
916.449
916.452
916.455
916.457
916.46
916.462
916.464
916.466
916.468
916.47
916.471
916.473
916.474
916.476
916.477
916.478
916.479
916.48
916.481
916.482
916.483
916.484
916.485
916.485
916.486
916.487
916.487
916.488
916.488
916.489
916.489
916.49
916.49
916.49
916.491
916.491
916.491
916.492
916.492
916.492
916.492
916.492
916.493
916.493
916.493
916.493
916.493
916.494
916.494
916.494
916.494
916.494
916.494
916.494
916.495
916.495
916.495
916.495
916.495
916.495
916.495
916.495
916.495
916.496
916.496
916.496
916.496
916.496
916.496
916.496
916.496
916.497
916.497
916.497
916.497
916.497
916.497
916.497
916.498
916.498
916.498
916.498
916.498
916.498
916.498
916.499
916.499
916.499
916.499
916.499
916.499
916.5
916.5
916.5
916.5
916.5
916.5
916.501
916.501
916.501
916.501
916.501
916.501
916.502
916.502
916.502
916.502
916.502
916.502
916.503
916.503
916.503
916.503
916.503
916.504
916.504
916.504
916.504
916.504
916.504
916.505
916.505
916.505
916.505
916.505
916.505
916.506
916.506
916.506
916.506
916.506
916.506
916.507
916.507
916.507
916.507
916.507
916.507
916.507
916.508
916.508
916.508
916.508
916.508
916.508
916.508
916.509
916.509
916.509
916.509
916.509
916.509
916.509
916.509
916.51
916.51
916.51
916.51
916.51
916.51
916.51
916.51
916.51
916.511
916.511
916.511
916.511
916.511
916.511
916.511
916.511
916.511
916.511
916.512
916.512
916.512
916.512
916.512
916.512
916.512
916.512
916.512
916.512
916.512
916.512
916.512
916.513
916.513
916.513
916.513
916.513
916.513
916.513
916.513
916.513
916.513
916.513
916.513
916.513
916.513
916.513
916.513
916.513
916.513
916.514
916.514
916.514
916.514
916.514
916.514
916.514
916.514
916.514
916.514
916.514
916.514
916.514
916.514
916.514
916.514
916.514
916.514
916.514
916.514
916.514
916.514
916.514
916.514
916.515
916.515
916.515
916.515
916.515
916.515
916.515
916.515
916.515
916.515
916.515
916.515
916.515
916.515
916.515
916.515
916.515
916.515
916.515
916.515
916.515
916.515
916.515
916.515
916.515
916.515
916.515
916.515
916.515
916.515
916.515
916.515
916.515
916.515
916.515
916.515
916.515
916.516
916.516
916.516
916.516
916.516
916.516
916.516
916.516
916.516
916.516
916.516
916.516
916.516
916.516
916.516
916.516
916.516
916.516
916.516
916.516
916.516
916.516
916.516
916.516
916.516
916.516
916.516
916.516
916.516
916.516
916.516
916.516
916.516
916.516
916.516
916.516
916.516
916.516
916.517
916.517
916.517
916.517
916.517
916.517
916.517
916.517
916.517
916.517
916.517
916.517
916.517
916.517
916.517
916.517
916.517
916.517
916.517
916.517
916.517
916.517
916.517
916.517
916.517
916.517
916.517
916.517
916.517
916.517
916.517
916.517
916.517
916.517
916.517
916.517
916.518
916.518
916.518
916.518
916.518
916.518
916.518
916.518
916.518
916.518
916.518
916.518
916.518
916.518
916.518
916.518
916.518
916.518
916.518
916.518
916.518
916.518
916.518
916.518
916.518
916.518
916.518
916.518
916.518
916.518
916.518
916.518
916.518
916.518
916.518
916.518
916.518
916.518
916.518
916.518
916.518
916.518
916.518
916.518
916.518
916.518
916.518
916.518
916.518
916.518
916.518
916.518
916.518
916.518
916.518
916.518
916.518
916.518
916.518
916.518
916.518
916.518
916.518
916.518
916.518
916.518
916.518
916.518
916.518
916.518
916.518
916.518
916.518
916.518
916.518
916.518
916.518
916.518
916.518
916.518
916.518
916.518
916.518
916.518
916.518
916.518
916.518
916.518
916.518
916.518
916.518
916.518
916.518
916.518
916.518
916.518
916.518
916.519
916.519
916.519
916.519
916.519
916.519
916.519
916.519
916.519
916.519
916.519
916.519
916.519
916.519
916.519
916.519
916.519
916.519
916.519
916.519
916.519
916.519
916.519
916.519
916.519
916.519
916.519
916.519
916.519
916.519
916.519
916.519
916.519
916.518
916.518
916.518
916.518
916.518
916.518
916.518
916.518
916.518
916.517
916.517
916.517
916.517
916.517
916.516
916.516
916.516
916.516
916.515
916.515
916.515
916.514
916.514
916.513
916.513
916.512
916.511
916.511
916.51
916.509
916.509
916.508
916.507
916.506
916.505
916.503
916.502
916.501
916.499
916.498
916.496
916.495
916.493
916.491
916.489
916.486
916.484
916.481
916.478
916.475
916.472
916.469
916.465
916.461
916.457
916.453
916.448
916.443
916.438
916.432
916.426
916.42
916.413
916.406
916.398
916.39
916.381
916.372
916.362
916.352
916.341
916.329
916.317
916.304
916.29
916.275
916.259
916.243
916.225
916.207
916.187
916.166
916.144
916.121
916.096
916.07
916.043
916.014
915.983
915.951
915.917
915.881
915.843
915.803
915.76
915.716
915.669
915.62
915.568
915.514
915.456
915.396
915.333
915.266
915.196
915.123
915.045
914.964
914.88
914.791
914.697
914.599
914.497
914.389
914.277
914.159
914.036
913.907
913.772
913.632
913.484
913.331
913.17
913.002
912.827
912.645
912.454
912.256
912.049
911.833
911.608
911.374
911.131
910.877
910.614
910.339
910.054
909.758
909.45
909.13
908.798
908.453
908.095
907.724
907.339
906.94
906.526
906.097
905.653
905.193
904.717
904.224
903.715
903.187
902.642
902.078
901.495
900.893
900.272
899.629
898.966
898.282
897.576
896.848
896.097
895.323
894.524
893.702
892.854
891.981
891.082
890.157
889.204
888.223
887.215
886.177
885.109
884.012
882.884
881.724
880.532
879.307
878.049
876.756
875.429
874.066
872.666
871.23
869.755
868.242
866.689
865.096
863.461
861.784
860.064
858.3
856.491
854.636
852.733
850.783
848.783
846.732
844.63
842.475
840.265
838.001
835.679
833.299
830.859
828.357
825.793
823.164
820.468
817.705
814.871
811.966
808.986
805.93
802.796
799.582
796.284
792.902
789.431
785.869
782.214
778.463
774.612
770.659
766.6
762.432
758.152
753.755
749.238
744.597
739.828
734.927
729.889
724.709
719.384
713.907
708.301
702.561
696.603
690.475
684.169
677.682
671.006
664.136
657.066
649.79
642.303
634.597
626.668
618.51
610.116
601.483
592.604
583.476
574.094
564.454
554.555
544.394
533.97
523.284
512.337
501.133
489.677
477.975
466.037
453.875
441.502
428.936
416.198
403.312
390.305
377.21
364.063
350.905
337.783
324.749
311.86
299.183
)
;

boundaryField
{
    fixedWall
    {
        type            fixedValue;
        value           uniform 293;
    }
    outlet
    {
        type            inletOutlet;
        inletValue      uniform 293;
        value           uniform 293;
    }
    defaultFaces
    {
        type            empty;
    }
}


// ************************************************************************* //
