/*--------------------------------*- C++ -*----------------------------------*\
| =========                 |                                                 |
| \\      /  F ield         | OpenFOAM: The Open Source CFD Toolbox           |
|  \\    /   O peration     | Version:  2406                                  |
|   \\  /    A nd           | Website:  www.openfoam.com                      |
|    \\/     M anipulation  |                                                 |
\*---------------------------------------------------------------------------*/
FoamFile
{
    version     2.0;
    format      ascii;
    arch        "LSB;label=32;scalar=64";
    class       volVectorField;
    location    "13.5";
    object      U;
}
// * * * * * * * * * * * * * * * * * * * * * * * * * * * * * * * * * * * * * //

dimensions      [0 1 -1 0 0 0 0];

internalField   nonuniform List<vector> 
1000
(
(-6.11932e-07 0 0)
(-2.95578e-06 0 0)
(-7.65545e-06 0 0)
(-1.41964e-05 0 0)
(-2.21851e-05 0 0)
(-3.13816e-05 0 0)
(-4.16152e-05 0 0)
(-5.27451e-05 0 0)
(-6.46517e-05 0 0)
(-7.72323e-05 0 0)
(-9.04021e-05 0 0)
(-0.000104087 0 0)
(-0.000118224 0 0)
(-0.000132756 0 0)
(-0.000147634 0 0)
(-0.000162816 0 0)
(-0.000178263 0 0)
(-0.000193941 0 0)
(-0.00020982 0 0)
(-0.00022587 0 0)
(-0.000242067 0 0)
(-0.000258388 0 0)
(-0.000274813 0 0)
(-0.000291322 0 0)
(-0.000307898 0 0)
(-0.000324523 0 0)
(-0.000341185 0 0)
(-0.000357869 0 0)
(-0.000374562 0 0)
(-0.000391252 0 0)
(-0.000407928 0 0)
(-0.000424581 0 0)
(-0.000441199 0 0)
(-0.000457774 0 0)
(-0.000474297 0 0)
(-0.000490762 0 0)
(-0.00050716 0 0)
(-0.000523484 0 0)
(-0.000539728 0 0)
(-0.000555885 0 0)
(-0.00057195 0 0)
(-0.000587917 0 0)
(-0.000603781 0 0)
(-0.000619538 0 0)
(-0.000635183 0 0)
(-0.000650711 0 0)
(-0.00066612 0 0)
(-0.000681404 0 0)
(-0.00069656 0 0)
(-0.000711584 0 0)
(-0.000726475 0 0)
(-0.000741228 0 0)
(-0.000755841 0 0)
(-0.000770313 0 0)
(-0.000784639 0 0)
(-0.000798818 0 0)
(-0.000812849 0 0)
(-0.000826728 0 0)
(-0.000840455 0 0)
(-0.000854027 0 0)
(-0.000867444 0 0)
(-0.000880704 0 0)
(-0.000893805 0 0)
(-0.000906747 0 0)
(-0.000919529 0 0)
(-0.00093215 0 0)
(-0.000944609 0 0)
(-0.000956905 0 0)
(-0.000969039 0 0)
(-0.000981009 0 0)
(-0.000992815 0 0)
(-0.00100446 0 0)
(-0.00101594 0 0)
(-0.00102725 0 0)
(-0.0010384 0 0)
(-0.00104939 0 0)
(-0.00106021 0 0)
(-0.00107087 0 0)
(-0.00108136 0 0)
(-0.00109169 0 0)
(-0.00110186 0 0)
(-0.00111187 0 0)
(-0.00112172 0 0)
(-0.0011314 0 0)
(-0.00114093 0 0)
(-0.0011503 0 0)
(-0.00115951 0 0)
(-0.00116856 0 0)
(-0.00117745 0 0)
(-0.00118619 0 0)
(-0.00119478 0 0)
(-0.00120321 0 0)
(-0.00121149 0 0)
(-0.00121962 0 0)
(-0.0012276 0 0)
(-0.00123543 0 0)
(-0.00124311 0 0)
(-0.00125065 0 0)
(-0.00125805 0 0)
(-0.0012653 0 0)
(-0.0012724 0 0)
(-0.00127937 0 0)
(-0.0012862 0 0)
(-0.00129289 0 0)
(-0.00129945 0 0)
(-0.00130587 0 0)
(-0.00131216 0 0)
(-0.00131831 0 0)
(-0.00132434 0 0)
(-0.00133024 0 0)
(-0.00133601 0 0)
(-0.00134166 0 0)
(-0.00134718 0 0)
(-0.00135258 0 0)
(-0.00135787 0 0)
(-0.00136303 0 0)
(-0.00136808 0 0)
(-0.00137301 0 0)
(-0.00137783 0 0)
(-0.00138254 0 0)
(-0.00138714 0 0)
(-0.00139163 0 0)
(-0.00139601 0 0)
(-0.00140029 0 0)
(-0.00140447 0 0)
(-0.00140854 0 0)
(-0.00141252 0 0)
(-0.00141639 0 0)
(-0.00142017 0 0)
(-0.00142386 0 0)
(-0.00142745 0 0)
(-0.00143096 0 0)
(-0.00143437 0 0)
(-0.00143769 0 0)
(-0.00144093 0 0)
(-0.00144408 0 0)
(-0.00144715 0 0)
(-0.00145014 0 0)
(-0.00145305 0 0)
(-0.00145588 0 0)
(-0.00145864 0 0)
(-0.00146131 0 0)
(-0.00146392 0 0)
(-0.00146645 0 0)
(-0.00146892 0 0)
(-0.00147131 0 0)
(-0.00147364 0 0)
(-0.0014759 0 0)
(-0.00147809 0 0)
(-0.00148022 0 0)
(-0.00148229 0 0)
(-0.0014843 0 0)
(-0.00148625 0 0)
(-0.00148815 0 0)
(-0.00148998 0 0)
(-0.00149177 0 0)
(-0.00149349 0 0)
(-0.00149517 0 0)
(-0.00149679 0 0)
(-0.00149837 0 0)
(-0.00149989 0 0)
(-0.00150137 0 0)
(-0.0015028 0 0)
(-0.00150419 0 0)
(-0.00150553 0 0)
(-0.00150683 0 0)
(-0.00150809 0 0)
(-0.00150931 0 0)
(-0.00151048 0 0)
(-0.00151163 0 0)
(-0.00151273 0 0)
(-0.0015138 0 0)
(-0.00151484 0 0)
(-0.00151583 0 0)
(-0.0015168 0 0)
(-0.00151773 0 0)
(-0.00151863 0 0)
(-0.0015195 0 0)
(-0.00152034 0 0)
(-0.00152115 0 0)
(-0.00152192 0 0)
(-0.00152267 0 0)
(-0.0015234 0 0)
(-0.0015241 0 0)
(-0.00152477 0 0)
(-0.00152543 0 0)
(-0.00152606 0 0)
(-0.00152666 0 0)
(-0.00152725 0 0)
(-0.00152781 0 0)
(-0.00152835 0 0)
(-0.00152887 0 0)
(-0.00152938 0 0)
(-0.00152986 0 0)
(-0.00153033 0 0)
(-0.00153078 0 0)
(-0.00153122 0 0)
(-0.00153163 0 0)
(-0.00153203 0 0)
(-0.00153242 0 0)
(-0.00153279 0 0)
(-0.00153314 0 0)
(-0.00153348 0 0)
(-0.00153381 0 0)
(-0.00153413 0 0)
(-0.00153443 0 0)
(-0.00153472 0 0)
(-0.001535 0 0)
(-0.00153527 0 0)
(-0.00153553 0 0)
(-0.00153577 0 0)
(-0.00153601 0 0)
(-0.00153624 0 0)
(-0.00153646 0 0)
(-0.00153667 0 0)
(-0.00153686 0 0)
(-0.00153706 0 0)
(-0.00153724 0 0)
(-0.00153742 0 0)
(-0.00153758 0 0)
(-0.00153775 0 0)
(-0.0015379 0 0)
(-0.00153805 0 0)
(-0.00153819 0 0)
(-0.00153832 0 0)
(-0.00153845 0 0)
(-0.00153858 0 0)
(-0.00153869 0 0)
(-0.00153881 0 0)
(-0.00153891 0 0)
(-0.00153902 0 0)
(-0.00153911 0 0)
(-0.00153921 0 0)
(-0.0015393 0 0)
(-0.00153938 0 0)
(-0.00153946 0 0)
(-0.00153954 0 0)
(-0.00153962 0 0)
(-0.00153969 0 0)
(-0.00153975 0 0)
(-0.00153982 0 0)
(-0.00153988 0 0)
(-0.00153994 0 0)
(-0.00153999 0 0)
(-0.00154005 0 0)
(-0.00154009 0 0)
(-0.00154014 0 0)
(-0.00154019 0 0)
(-0.00154023 0 0)
(-0.00154027 0 0)
(-0.00154031 0 0)
(-0.00154035 0 0)
(-0.00154038 0 0)
(-0.00154041 0 0)
(-0.00154045 0 0)
(-0.00154048 0 0)
(-0.0015405 0 0)
(-0.00154053 0 0)
(-0.00154056 0 0)
(-0.00154058 0 0)
(-0.0015406 0 0)
(-0.00154062 0 0)
(-0.00154064 0 0)
(-0.00154066 0 0)
(-0.00154068 0 0)
(-0.0015407 0 0)
(-0.00154071 0 0)
(-0.00154073 0 0)
(-0.00154074 0 0)
(-0.00154075 0 0)
(-0.00154077 0 0)
(-0.00154078 0 0)
(-0.00154079 0 0)
(-0.0015408 0 0)
(-0.00154081 0 0)
(-0.00154082 0 0)
(-0.00154083 0 0)
(-0.00154083 0 0)
(-0.00154084 0 0)
(-0.00154085 0 0)
(-0.00154085 0 0)
(-0.00154086 0 0)
(-0.00154087 0 0)
(-0.00154087 0 0)
(-0.00154088 0 0)
(-0.00154088 0 0)
(-0.00154088 0 0)
(-0.00154089 0 0)
(-0.00154089 0 0)
(-0.00154089 0 0)
(-0.0015409 0 0)
(-0.0015409 0 0)
(-0.0015409 0 0)
(-0.0015409 0 0)
(-0.00154091 0 0)
(-0.00154091 0 0)
(-0.00154091 0 0)
(-0.00154091 0 0)
(-0.00154091 0 0)
(-0.00154091 0 0)
(-0.00154091 0 0)
(-0.00154092 0 0)
(-0.00154092 0 0)
(-0.00154092 0 0)
(-0.00154092 0 0)
(-0.00154092 0 0)
(-0.00154092 0 0)
(-0.00154092 0 0)
(-0.00154092 0 0)
(-0.00154092 0 0)
(-0.00154092 0 0)
(-0.00154092 0 0)
(-0.00154092 0 0)
(-0.00154092 0 0)
(-0.00154092 0 0)
(-0.00154092 0 0)
(-0.00154092 0 0)
(-0.00154092 0 0)
(-0.00154091 0 0)
(-0.00154092 0 0)
(-0.00154092 0 0)
(-0.00154091 0 0)
(-0.00154092 0 0)
(-0.00154091 0 0)
(-0.00154091 0 0)
(-0.00154091 0 0)
(-0.00154091 0 0)
(-0.00154091 0 0)
(-0.00154091 0 0)
(-0.00154091 0 0)
(-0.00154091 0 0)
(-0.00154091 0 0)
(-0.00154091 0 0)
(-0.00154091 0 0)
(-0.00154091 0 0)
(-0.00154091 0 0)
(-0.00154091 0 0)
(-0.00154091 0 0)
(-0.00154091 0 0)
(-0.00154091 0 0)
(-0.0015409 0 0)
(-0.00154091 0 0)
(-0.0015409 0 0)
(-0.0015409 0 0)
(-0.0015409 0 0)
(-0.0015409 0 0)
(-0.0015409 0 0)
(-0.0015409 0 0)
(-0.0015409 0 0)
(-0.0015409 0 0)
(-0.0015409 0 0)
(-0.0015409 0 0)
(-0.0015409 0 0)
(-0.0015409 0 0)
(-0.0015409 0 0)
(-0.0015409 0 0)
(-0.0015409 0 0)
(-0.0015409 0 0)
(-0.0015409 0 0)
(-0.0015409 0 0)
(-0.0015409 0 0)
(-0.0015409 0 0)
(-0.0015409 0 0)
(-0.0015409 0 0)
(-0.0015409 0 0)
(-0.0015409 0 0)
(-0.0015409 0 0)
(-0.0015409 0 0)
(-0.0015409 0 0)
(-0.0015409 0 0)
(-0.0015409 0 0)
(-0.0015409 0 0)
(-0.0015409 0 0)
(-0.0015409 0 0)
(-0.0015409 0 0)
(-0.0015409 0 0)
(-0.0015409 0 0)
(-0.0015409 0 0)
(-0.0015409 0 0)
(-0.0015409 0 0)
(-0.0015409 0 0)
(-0.0015409 0 0)
(-0.00154091 0 0)
(-0.0015409 0 0)
(-0.0015409 0 0)
(-0.00154091 0 0)
(-0.00154091 0 0)
(-0.00154091 0 0)
(-0.00154091 0 0)
(-0.00154091 0 0)
(-0.00154091 0 0)
(-0.00154091 0 0)
(-0.00154091 0 0)
(-0.00154091 0 0)
(-0.00154091 0 0)
(-0.00154091 0 0)
(-0.00154091 0 0)
(-0.00154091 0 0)
(-0.00154091 0 0)
(-0.00154091 0 0)
(-0.00154091 0 0)
(-0.00154091 0 0)
(-0.00154091 0 0)
(-0.00154091 0 0)
(-0.00154091 0 0)
(-0.00154091 0 0)
(-0.00154091 0 0)
(-0.00154091 0 0)
(-0.00154091 0 0)
(-0.00154091 0 0)
(-0.00154091 0 0)
(-0.00154091 0 0)
(-0.00154091 0 0)
(-0.00154091 0 0)
(-0.00154092 0 0)
(-0.00154091 0 0)
(-0.00154092 0 0)
(-0.00154091 0 0)
(-0.00154092 0 0)
(-0.00154092 0 0)
(-0.00154092 0 0)
(-0.00154092 0 0)
(-0.00154092 0 0)
(-0.00154092 0 0)
(-0.00154092 0 0)
(-0.00154092 0 0)
(-0.00154092 0 0)
(-0.00154092 0 0)
(-0.00154092 0 0)
(-0.00154092 0 0)
(-0.00154092 0 0)
(-0.00154092 0 0)
(-0.00154092 0 0)
(-0.00154092 0 0)
(-0.00154092 0 0)
(-0.00154092 0 0)
(-0.00154092 0 0)
(-0.00154092 0 0)
(-0.00154092 0 0)
(-0.00154092 0 0)
(-0.00154092 0 0)
(-0.00154092 0 0)
(-0.00154092 0 0)
(-0.00154092 0 0)
(-0.00154092 0 0)
(-0.00154092 0 0)
(-0.00154092 0 0)
(-0.00154092 0 0)
(-0.00154092 0 0)
(-0.00154092 0 0)
(-0.00154092 0 0)
(-0.00154092 0 0)
(-0.00154092 0 0)
(-0.00154092 0 0)
(-0.00154092 0 0)
(-0.00154092 0 0)
(-0.00154092 0 0)
(-0.00154092 0 0)
(-0.00154092 0 0)
(-0.00154092 0 0)
(-0.00154092 0 0)
(-0.00154092 0 0)
(-0.00154092 0 0)
(-0.00154092 0 0)
(-0.00154092 0 0)
(-0.00154092 0 0)
(-0.00154092 0 0)
(-0.00154092 0 0)
(-0.00154092 0 0)
(-0.00154092 0 0)
(-0.00154092 0 0)
(-0.00154092 0 0)
(-0.00154092 0 0)
(-0.00154092 0 0)
(-0.00154093 0 0)
(-0.00154092 0 0)
(-0.00154092 0 0)
(-0.00154092 0 0)
(-0.00154092 0 0)
(-0.00154093 0 0)
(-0.00154092 0 0)
(-0.00154093 0 0)
(-0.00154092 0 0)
(-0.00154093 0 0)
(-0.00154093 0 0)
(-0.00154093 0 0)
(-0.00154093 0 0)
(-0.00154093 0 0)
(-0.00154093 0 0)
(-0.00154092 0 0)
(-0.00154093 0 0)
(-0.00154092 0 0)
(-0.00154092 0 0)
(-0.00154093 0 0)
(-0.00154093 0 0)
(-0.00154093 0 0)
(-0.00154093 0 0)
(-0.00154092 0 0)
(-0.00154093 0 0)
(-0.00154092 0 0)
(-0.00154093 0 0)
(-0.00154093 0 0)
(-0.00154092 0 0)
(-0.00154093 0 0)
(-0.00154092 0 0)
(-0.00154093 0 0)
(-0.00154092 0 0)
(-0.00154093 0 0)
(-0.00154092 0 0)
(-0.00154093 0 0)
(-0.00154092 0 0)
(-0.00154092 0 0)
(-0.00154093 0 0)
(-0.00154092 0 0)
(-0.00154092 0 0)
(-0.00154092 0 0)
(-0.00154092 0 0)
(-0.00154092 0 0)
(-0.00154092 0 0)
(-0.00154092 0 0)
(-0.00154092 0 0)
(-0.00154092 0 0)
(-0.00154092 0 0)
(-0.00154092 0 0)
(-0.00154092 0 0)
(-0.00154092 0 0)
(-0.00154092 0 0)
(-0.00154092 0 0)
(-0.00154092 0 0)
(-0.00154092 0 0)
(-0.00154092 0 0)
(-0.00154092 0 0)
(-0.00154092 0 0)
(-0.00154092 0 0)
(-0.00154092 0 0)
(-0.00154092 0 0)
(-0.00154092 0 0)
(-0.00154092 0 0)
(-0.00154092 0 0)
(-0.00154092 0 0)
(-0.00154092 0 0)
(-0.00154092 0 0)
(-0.00154092 0 0)
(-0.00154092 0 0)
(-0.00154092 0 0)
(-0.00154092 0 0)
(-0.00154092 0 0)
(-0.00154092 0 0)
(-0.00154092 0 0)
(-0.00154092 0 0)
(-0.00154092 0 0)
(-0.00154092 0 0)
(-0.00154092 0 0)
(-0.00154092 0 0)
(-0.00154092 0 0)
(-0.00154092 0 0)
(-0.00154092 0 0)
(-0.00154092 0 0)
(-0.00154092 0 0)
(-0.00154092 0 0)
(-0.00154092 0 0)
(-0.00154092 0 0)
(-0.00154092 0 0)
(-0.00154092 0 0)
(-0.00154092 0 0)
(-0.00154092 0 0)
(-0.00154092 0 0)
(-0.00154092 0 0)
(-0.00154092 0 0)
(-0.00154092 0 0)
(-0.00154092 0 0)
(-0.00154092 0 0)
(-0.00154092 0 0)
(-0.00154092 0 0)
(-0.00154092 0 0)
(-0.00154092 0 0)
(-0.00154092 0 0)
(-0.00154092 0 0)
(-0.00154092 0 0)
(-0.00154092 0 0)
(-0.00154092 0 0)
(-0.00154092 0 0)
(-0.00154092 0 0)
(-0.00154092 0 0)
(-0.00154092 0 0)
(-0.00154092 0 0)
(-0.00154092 0 0)
(-0.00154092 0 0)
(-0.00154092 0 0)
(-0.00154092 0 0)
(-0.00154092 0 0)
(-0.00154092 0 0)
(-0.00154092 0 0)
(-0.00154092 0 0)
(-0.00154092 0 0)
(-0.00154092 0 0)
(-0.00154092 0 0)
(-0.00154092 0 0)
(-0.00154092 0 0)
(-0.00154092 0 0)
(-0.00154092 0 0)
(-0.00154092 0 0)
(-0.00154092 0 0)
(-0.00154092 0 0)
(-0.00154092 0 0)
(-0.00154092 0 0)
(-0.00154092 0 0)
(-0.00154092 0 0)
(-0.00154092 0 0)
(-0.00154092 0 0)
(-0.00154092 0 0)
(-0.00154092 0 0)
(-0.00154092 0 0)
(-0.00154092 0 0)
(-0.00154092 0 0)
(-0.00154092 0 0)
(-0.00154092 0 0)
(-0.00154092 0 0)
(-0.00154092 0 0)
(-0.00154092 0 0)
(-0.00154092 0 0)
(-0.00154092 0 0)
(-0.00154092 0 0)
(-0.00154092 0 0)
(-0.00154092 0 0)
(-0.00154092 0 0)
(-0.00154092 0 0)
(-0.00154092 0 0)
(-0.00154092 0 0)
(-0.00154092 0 0)
(-0.00154092 0 0)
(-0.00154092 0 0)
(-0.00154092 0 0)
(-0.00154092 0 0)
(-0.00154092 0 0)
(-0.00154092 0 0)
(-0.00154092 0 0)
(-0.00154092 0 0)
(-0.00154092 0 0)
(-0.00154092 0 0)
(-0.00154092 0 0)
(-0.00154092 0 0)
(-0.00154092 0 0)
(-0.00154092 0 0)
(-0.00154092 0 0)
(-0.00154092 0 0)
(-0.00154092 0 0)
(-0.00154092 0 0)
(-0.00154092 0 0)
(-0.00154092 0 0)
(-0.00154092 0 0)
(-0.00154092 0 0)
(-0.00154091 0 0)
(-0.00154092 0 0)
(-0.00154091 0 0)
(-0.00154092 0 0)
(-0.00154092 0 0)
(-0.00154091 0 0)
(-0.00154092 0 0)
(-0.00154091 0 0)
(-0.00154092 0 0)
(-0.00154091 0 0)
(-0.00154091 0 0)
(-0.00154091 0 0)
(-0.00154091 0 0)
(-0.00154091 0 0)
(-0.00154091 0 0)
(-0.00154091 0 0)
(-0.00154091 0 0)
(-0.00154091 0 0)
(-0.00154091 0 0)
(-0.00154091 0 0)
(-0.00154091 0 0)
(-0.00154091 0 0)
(-0.00154091 0 0)
(-0.00154091 0 0)
(-0.00154091 0 0)
(-0.00154091 0 0)
(-0.00154091 0 0)
(-0.00154091 0 0)
(-0.00154091 0 0)
(-0.00154091 0 0)
(-0.00154091 0 0)
(-0.00154091 0 0)
(-0.00154091 0 0)
(-0.00154091 0 0)
(-0.00154091 0 0)
(-0.00154091 0 0)
(-0.00154091 0 0)
(-0.00154091 0 0)
(-0.00154091 0 0)
(-0.00154091 0 0)
(-0.00154091 0 0)
(-0.00154091 0 0)
(-0.00154091 0 0)
(-0.00154091 0 0)
(-0.00154091 0 0)
(-0.00154091 0 0)
(-0.00154091 0 0)
(-0.00154091 0 0)
(-0.00154091 0 0)
(-0.00154091 0 0)
(-0.00154091 0 0)
(-0.00154091 0 0)
(-0.00154091 0 0)
(-0.00154091 0 0)
(-0.00154091 0 0)
(-0.00154091 0 0)
(-0.00154091 0 0)
(-0.00154091 0 0)
(-0.00154091 0 0)
(-0.00154092 0 0)
(-0.00154092 0 0)
(-0.00154092 0 0)
(-0.00154092 0 0)
(-0.00154092 0 0)
(-0.00154092 0 0)
(-0.00154092 0 0)
(-0.00154092 0 0)
(-0.00154093 0 0)
(-0.00154093 0 0)
(-0.00154093 0 0)
(-0.00154093 0 0)
(-0.00154094 0 0)
(-0.00154094 0 0)
(-0.00154094 0 0)
(-0.00154094 0 0)
(-0.00154095 0 0)
(-0.00154095 0 0)
(-0.00154095 0 0)
(-0.00154096 0 0)
(-0.00154096 0 0)
(-0.00154097 0 0)
(-0.00154097 0 0)
(-0.00154098 0 0)
(-0.00154098 0 0)
(-0.00154099 0 0)
(-0.001541 0 0)
(-0.001541 0 0)
(-0.00154101 0 0)
(-0.00154102 0 0)
(-0.00154103 0 0)
(-0.00154104 0 0)
(-0.00154105 0 0)
(-0.00154106 0 0)
(-0.00154107 0 0)
(-0.00154108 0 0)
(-0.00154109 0 0)
(-0.00154111 0 0)
(-0.00154112 0 0)
(-0.00154114 0 0)
(-0.00154115 0 0)
(-0.00154117 0 0)
(-0.00154119 0 0)
(-0.00154121 0 0)
(-0.00154123 0 0)
(-0.00154126 0 0)
(-0.00154128 0 0)
(-0.00154131 0 0)
(-0.00154134 0 0)
(-0.00154137 0 0)
(-0.0015414 0 0)
(-0.00154143 0 0)
(-0.00154147 0 0)
(-0.00154151 0 0)
(-0.00154155 0 0)
(-0.0015416 0 0)
(-0.00154164 0 0)
(-0.00154169 0 0)
(-0.00154175 0 0)
(-0.0015418 0 0)
(-0.00154186 0 0)
(-0.00154193 0 0)
(-0.00154199 0 0)
(-0.00154207 0 0)
(-0.00154214 0 0)
(-0.00154222 0 0)
(-0.00154231 0 0)
(-0.0015424 0 0)
(-0.0015425 0 0)
(-0.0015426 0 0)
(-0.00154271 0 0)
(-0.00154283 0 0)
(-0.00154295 0 0)
(-0.00154308 0 0)
(-0.00154322 0 0)
(-0.00154337 0 0)
(-0.00154352 0 0)
(-0.00154368 0 0)
(-0.00154386 0 0)
(-0.00154404 0 0)
(-0.00154423 0 0)
(-0.00154444 0 0)
(-0.00154465 0 0)
(-0.00154488 0 0)
(-0.00154512 0 0)
(-0.00154538 0 0)
(-0.00154565 0 0)
(-0.00154593 0 0)
(-0.00154623 0 0)
(-0.00154654 0 0)
(-0.00154688 0 0)
(-0.00154723 0 0)
(-0.0015476 0 0)
(-0.00154798 0 0)
(-0.00154839 0 0)
(-0.00154882 0 0)
(-0.00154927 0 0)
(-0.00154975 0 0)
(-0.00155025 0 0)
(-0.00155077 0 0)
(-0.00155133 0 0)
(-0.0015519 0 0)
(-0.00155251 0 0)
(-0.00155315 0 0)
(-0.00155382 0 0)
(-0.00155452 0 0)
(-0.00155526 0 0)
(-0.00155603 0 0)
(-0.00155684 0 0)
(-0.00155769 0 0)
(-0.00155858 0 0)
(-0.00155951 0 0)
(-0.00156048 0 0)
(-0.0015615 0 0)
(-0.00156256 0 0)
(-0.00156367 0 0)
(-0.00156483 0 0)
(-0.00156605 0 0)
(-0.00156731 0 0)
(-0.00156864 0 0)
(-0.00157002 0 0)
(-0.00157146 0 0)
(-0.00157296 0 0)
(-0.00157453 0 0)
(-0.00157616 0 0)
(-0.00157786 0 0)
(-0.00157963 0 0)
(-0.00158148 0 0)
(-0.0015834 0 0)
(-0.0015854 0 0)
(-0.00158747 0 0)
(-0.00158964 0 0)
(-0.00159188 0 0)
(-0.00159421 0 0)
(-0.00159664 0 0)
(-0.00159915 0 0)
(-0.00160177 0 0)
(-0.00160448 0 0)
(-0.00160729 0 0)
(-0.0016102 0 0)
(-0.00161322 0 0)
(-0.00161636 0 0)
(-0.0016196 0 0)
(-0.00162296 0 0)
(-0.00162643 0 0)
(-0.00163003 0 0)
(-0.00163375 0 0)
(-0.00163759 0 0)
(-0.00164157 0 0)
(-0.00164568 0 0)
(-0.00164992 0 0)
(-0.0016543 0 0)
(-0.00165882 0 0)
(-0.00166348 0 0)
(-0.0016683 0 0)
(-0.00167326 0 0)
(-0.00167837 0 0)
(-0.00168364 0 0)
(-0.00168907 0 0)
(-0.00169465 0 0)
(-0.0017004 0 0)
(-0.00170632 0 0)
(-0.0017124 0 0)
(-0.00171866 0 0)
(-0.00172508 0 0)
(-0.00173169 0 0)
(-0.00173847 0 0)
(-0.00174543 0 0)
(-0.00175257 0 0)
(-0.0017599 0 0)
(-0.00176741 0 0)
(-0.00177511 0 0)
(-0.001783 0 0)
(-0.00179109 0 0)
(-0.00179936 0 0)
(-0.00180783 0 0)
(-0.00181649 0 0)
(-0.00182535 0 0)
(-0.00183441 0 0)
(-0.00184366 0 0)
(-0.00185311 0 0)
(-0.00186276 0 0)
(-0.00187261 0 0)
(-0.00188266 0 0)
(-0.0018929 0 0)
(-0.00190335 0 0)
(-0.00191399 0 0)
(-0.00192482 0 0)
(-0.00193586 0 0)
(-0.00194708 0 0)
(-0.0019585 0 0)
(-0.00197011 0 0)
(-0.00198191 0 0)
(-0.00199389 0 0)
(-0.00200606 0 0)
(-0.00201841 0 0)
(-0.00203093 0 0)
(-0.00204362 0 0)
(-0.00205649 0 0)
(-0.00206952 0 0)
(-0.00208271 0 0)
(-0.00209605 0 0)
(-0.00210955 0 0)
(-0.00212319 0 0)
(-0.00213697 0 0)
(-0.00215088 0 0)
(-0.00216491 0 0)
(-0.00217907 0 0)
(-0.00219333 0 0)
(-0.00220769 0 0)
(-0.00222215 0 0)
(-0.00223669 0 0)
(-0.00225131 0 0)
(-0.00226599 0 0)
(-0.00228073 0 0)
(-0.0022955 0 0)
(-0.00231032 0 0)
(-0.00232515 0 0)
(-0.00233999 0 0)
(-0.00235482 0 0)
(-0.00236964 0 0)
(-0.00238442 0 0)
(-0.00239916 0 0)
(-0.00241384 0 0)
(-0.00242843 0 0)
(-0.00244293 0 0)
(-0.00245732 0 0)
(-0.00247158 0 0)
(-0.00248569 0 0)
(-0.00249964 0 0)
(-0.00251339 0 0)
(-0.00252694 0 0)
(-0.00254026 0 0)
(-0.00255332 0 0)
(-0.00256611 0 0)
(-0.0025786 0 0)
(-0.00259077 0 0)
(-0.00260259 0 0)
(-0.00261403 0 0)
(-0.00262507 0 0)
(-0.00263568 0 0)
(-0.00264584 0 0)
(-0.0026555 0 0)
(-0.00266465 0 0)
(-0.00267326 0 0)
(-0.00268131 0 0)
(-0.00268879 0 0)
(-0.00269558 0 0)
(-0.00270156 0 0)
(-0.00270668 0 0)
(-0.00271098 0 0)
(-0.00271447 0 0)
(-0.00271713 0 0)
(-0.00271888 0 0)
(-0.00271965 0 0)
(-0.00271942 0 0)
(-0.0027181 0 0)
(-0.00271564 0 0)
(-0.00271198 0 0)
(-0.00270705 0 0)
(-0.00270079 0 0)
(-0.00269312 0 0)
(-0.00268399 0 0)
(-0.0026733 0 0)
(-0.002661 0 0)
(-0.002647 0 0)
(-0.00263122 0 0)
(-0.00261358 0 0)
(-0.00259399 0 0)
(-0.00257237 0 0)
(-0.00254863 0 0)
(-0.00252267 0 0)
(-0.00249442 0 0)
(-0.00246377 0 0)
(-0.00243065 0 0)
(-0.00239498 0 0)
(-0.00235666 0 0)
(-0.00231562 0 0)
(-0.0022718 0 0)
(-0.00222514 0 0)
(-0.00217559 0 0)
(-0.00212311 0 0)
(-0.00206766 0 0)
(-0.00200936 0 0)
(-0.00194844 0 0)
(-0.00188494 0 0)
(-0.00181652 0 0)
(-0.00173795 0 0)
(-0.00166101 0 0)
)
;

boundaryField
{
    fixedWall
    {
        type            fixedValue;
        value           uniform (0 0 0);
    }
    outlet
    {
        type            pressureInletOutletVelocity;
        value           uniform (-0.00166101 0 0);
    }
    defaultFaces
    {
        type            empty;
    }
}


// ************************************************************************* //
