/*--------------------------------*- C++ -*----------------------------------*\
| =========                 |                                                 |
| \\      /  F ield         | OpenFOAM: The Open Source CFD Toolbox           |
|  \\    /   O peration     | Version:  2406                                  |
|   \\  /    A nd           | Website:  www.openfoam.com                      |
|    \\/     M anipulation  |                                                 |
\*---------------------------------------------------------------------------*/
FoamFile
{
    version     2.0;
    format      ascii;
    arch        "LSB;label=32;scalar=64";
    class       volScalarField;
    location    "9.2";
    object      O2;
}
// * * * * * * * * * * * * * * * * * * * * * * * * * * * * * * * * * * * * * //

dimensions      [0 0 0 0 0 0 0];

internalField   nonuniform List<scalar> 
1000
(
1.19471e-06
1.19258e-06
1.18872e-06
1.18343e-06
1.17692e-06
1.16936e-06
1.16087e-06
1.15156e-06
1.14154e-06
1.13086e-06
1.11961e-06
1.10783e-06
1.09558e-06
1.08291e-06
1.06986e-06
1.05646e-06
1.04275e-06
1.02877e-06
1.01453e-06
1.00008e-06
9.85438e-07
9.70625e-07
9.55668e-07
9.40587e-07
9.25406e-07
9.10145e-07
8.94823e-07
8.7946e-07
8.64075e-07
8.48687e-07
8.33312e-07
8.17968e-07
8.02673e-07
7.87443e-07
7.72294e-07
7.57242e-07
7.42302e-07
7.27488e-07
7.12815e-07
6.98297e-07
6.83946e-07
6.69774e-07
6.55794e-07
6.42016e-07
6.28451e-07
6.15108e-07
6.01996e-07
5.89123e-07
5.76496e-07
5.64122e-07
5.52007e-07
5.40155e-07
5.2857e-07
5.17257e-07
5.06217e-07
4.95453e-07
4.84966e-07
4.74757e-07
4.64826e-07
4.55172e-07
4.45795e-07
4.36693e-07
4.27863e-07
4.19304e-07
4.11012e-07
4.02984e-07
3.95216e-07
3.87705e-07
3.80447e-07
3.73436e-07
3.66669e-07
3.6014e-07
3.53844e-07
3.47776e-07
3.41931e-07
3.36304e-07
3.30888e-07
3.2568e-07
3.20672e-07
3.1586e-07
3.11238e-07
3.068e-07
3.02542e-07
2.98457e-07
2.94541e-07
2.90787e-07
2.87192e-07
2.83749e-07
2.80453e-07
2.773e-07
2.74285e-07
2.71402e-07
2.68648e-07
2.66018e-07
2.63506e-07
2.6111e-07
2.58824e-07
2.56644e-07
2.54567e-07
2.52588e-07
2.50704e-07
2.48911e-07
2.47206e-07
2.45585e-07
2.44044e-07
2.42581e-07
2.41192e-07
2.39874e-07
2.38625e-07
2.37442e-07
2.36321e-07
2.3526e-07
2.34257e-07
2.33309e-07
2.32414e-07
2.3157e-07
2.30774e-07
2.30024e-07
2.29319e-07
2.28656e-07
2.28033e-07
2.27449e-07
2.26902e-07
2.26391e-07
2.25913e-07
2.25467e-07
2.25052e-07
2.24666e-07
2.24308e-07
2.23977e-07
2.23671e-07
2.2339e-07
2.23131e-07
2.22895e-07
2.2268e-07
2.22485e-07
2.22309e-07
2.2215e-07
2.2201e-07
2.21885e-07
2.21777e-07
2.21683e-07
2.21604e-07
2.21538e-07
2.21485e-07
2.21444e-07
2.21414e-07
2.21396e-07
2.21388e-07
2.21391e-07
2.21402e-07
2.21423e-07
2.21452e-07
2.21489e-07
2.21534e-07
2.21587e-07
2.21646e-07
2.21712e-07
2.21784e-07
2.21862e-07
2.21946e-07
2.22035e-07
2.22129e-07
2.22228e-07
2.22332e-07
2.2244e-07
2.22552e-07
2.22668e-07
2.22788e-07
2.22911e-07
2.23038e-07
2.23168e-07
2.233e-07
2.23436e-07
2.23574e-07
2.23715e-07
2.23859e-07
2.24004e-07
2.24152e-07
2.24302e-07
2.24454e-07
2.24608e-07
2.24763e-07
2.24921e-07
2.2508e-07
2.2524e-07
2.25402e-07
2.25565e-07
2.2573e-07
2.25896e-07
2.26063e-07
2.26231e-07
2.264e-07
2.26571e-07
2.26742e-07
2.26914e-07
2.27087e-07
2.27261e-07
2.27436e-07
2.27612e-07
2.27788e-07
2.27966e-07
2.28143e-07
2.28322e-07
2.28501e-07
2.28681e-07
2.28861e-07
2.29042e-07
2.29224e-07
2.29406e-07
2.29588e-07
2.29772e-07
2.29955e-07
2.30139e-07
2.30324e-07
2.30509e-07
2.30694e-07
2.3088e-07
2.31066e-07
2.31253e-07
2.3144e-07
2.31627e-07
2.31815e-07
2.32003e-07
2.32191e-07
2.32379e-07
2.32568e-07
2.32758e-07
2.32948e-07
2.33138e-07
2.33329e-07
2.3352e-07
2.33711e-07
2.33903e-07
2.34095e-07
2.34287e-07
2.34479e-07
2.34672e-07
2.34865e-07
2.35058e-07
2.35252e-07
2.35446e-07
2.3564e-07
2.35834e-07
2.36029e-07
2.36224e-07
2.36419e-07
2.36615e-07
2.36811e-07
2.37007e-07
2.37203e-07
2.374e-07
2.37597e-07
2.37794e-07
2.37992e-07
2.38189e-07
2.38387e-07
2.38586e-07
2.38784e-07
2.38983e-07
2.39182e-07
2.39381e-07
2.39581e-07
2.39781e-07
2.39981e-07
2.40182e-07
2.40382e-07
2.40583e-07
2.40785e-07
2.40986e-07
2.41188e-07
2.4139e-07
2.41592e-07
2.41795e-07
2.41998e-07
2.42201e-07
2.42404e-07
2.42608e-07
2.42812e-07
2.43016e-07
2.43221e-07
2.43426e-07
2.43631e-07
2.43836e-07
2.44042e-07
2.44248e-07
2.44454e-07
2.44661e-07
2.44868e-07
2.45075e-07
2.45282e-07
2.4549e-07
2.45698e-07
2.45906e-07
2.46114e-07
2.46323e-07
2.46532e-07
2.46742e-07
2.46952e-07
2.4716e-07
2.47371e-07
2.47581e-07
2.47792e-07
2.48004e-07
2.48215e-07
2.48427e-07
2.48639e-07
2.48852e-07
2.49064e-07
2.49278e-07
2.49491e-07
2.49705e-07
2.49919e-07
2.50133e-07
2.50348e-07
2.50563e-07
2.50778e-07
2.50994e-07
2.5121e-07
2.51427e-07
2.51643e-07
2.5186e-07
2.52078e-07
2.52295e-07
2.52513e-07
2.52732e-07
2.52951e-07
2.5317e-07
2.53389e-07
2.53609e-07
2.53829e-07
2.5405e-07
2.54271e-07
2.54492e-07
2.54713e-07
2.54935e-07
2.55158e-07
2.5538e-07
2.55603e-07
2.55827e-07
2.56051e-07
2.56275e-07
2.56499e-07
2.56724e-07
2.5695e-07
2.57175e-07
2.57401e-07
2.57628e-07
2.57855e-07
2.58082e-07
2.5831e-07
2.58538e-07
2.58766e-07
2.58995e-07
2.59225e-07
2.59454e-07
2.59684e-07
2.59915e-07
2.60146e-07
2.60377e-07
2.60609e-07
2.60841e-07
2.61074e-07
2.61307e-07
2.6154e-07
2.61774e-07
2.62009e-07
2.62244e-07
2.62479e-07
2.62714e-07
2.62951e-07
2.63187e-07
2.63424e-07
2.63662e-07
2.63899e-07
2.64138e-07
2.64377e-07
2.64616e-07
2.64855e-07
2.65096e-07
2.65336e-07
2.65577e-07
2.65819e-07
2.66061e-07
2.66303e-07
2.66546e-07
2.66789e-07
2.67033e-07
2.67278e-07
2.67522e-07
2.67768e-07
2.68013e-07
2.6826e-07
2.68506e-07
2.68753e-07
2.69001e-07
2.69249e-07
2.69497e-07
2.69747e-07
2.69996e-07
2.70246e-07
2.70496e-07
2.70747e-07
2.70999e-07
2.71251e-07
2.71503e-07
2.71756e-07
2.72009e-07
2.72263e-07
2.72517e-07
2.72772e-07
2.73027e-07
2.73283e-07
2.73539e-07
2.73796e-07
2.74053e-07
2.74311e-07
2.74569e-07
2.74827e-07
2.75086e-07
2.75346e-07
2.75606e-07
2.75867e-07
2.76128e-07
2.76389e-07
2.76651e-07
2.76914e-07
2.77177e-07
2.77441e-07
2.77705e-07
2.77969e-07
2.78234e-07
2.785e-07
2.78766e-07
2.79032e-07
2.79299e-07
2.79567e-07
2.79835e-07
2.80103e-07
2.80372e-07
2.80642e-07
2.80912e-07
2.81182e-07
2.81453e-07
2.81725e-07
2.81997e-07
2.8227e-07
2.82543e-07
2.82816e-07
2.83091e-07
2.83365e-07
2.8364e-07
2.83916e-07
2.84192e-07
2.84469e-07
2.84747e-07
2.85024e-07
2.85303e-07
2.85582e-07
2.85861e-07
2.86141e-07
2.86422e-07
2.86703e-07
2.86984e-07
2.87267e-07
2.87549e-07
2.87833e-07
2.88116e-07
2.88401e-07
2.88686e-07
2.88971e-07
2.89257e-07
2.89544e-07
2.89831e-07
2.90119e-07
2.90407e-07
2.90696e-07
2.90986e-07
2.91276e-07
2.91567e-07
2.91858e-07
2.9215e-07
2.92442e-07
2.92735e-07
2.93029e-07
2.93323e-07
2.93618e-07
2.93913e-07
2.94209e-07
2.94506e-07
2.94803e-07
2.95101e-07
2.95399e-07
2.95698e-07
2.95998e-07
2.96298e-07
2.96599e-07
2.969e-07
2.97203e-07
2.97505e-07
2.97809e-07
2.98113e-07
2.98417e-07
2.98722e-07
2.99028e-07
2.99335e-07
2.99642e-07
2.9995e-07
3.00258e-07
3.00567e-07
3.00877e-07
3.01187e-07
3.01498e-07
3.0181e-07
3.0212e-07
3.02433e-07
3.02747e-07
3.03061e-07
3.03376e-07
3.03692e-07
3.04008e-07
3.04325e-07
3.04643e-07
3.04961e-07
3.0528e-07
3.056e-07
3.05921e-07
3.06242e-07
3.06563e-07
3.06886e-07
3.07209e-07
3.07533e-07
3.07857e-07
3.08182e-07
3.08508e-07
3.08835e-07
3.09162e-07
3.0949e-07
3.09819e-07
3.10148e-07
3.10478e-07
3.10809e-07
3.11141e-07
3.11471e-07
3.11802e-07
3.12136e-07
3.1247e-07
3.12805e-07
3.1314e-07
3.13477e-07
3.13814e-07
3.14151e-07
3.1449e-07
3.14829e-07
3.15169e-07
3.15509e-07
3.1585e-07
3.16192e-07
3.16535e-07
3.16879e-07
3.17223e-07
3.17568e-07
3.17913e-07
3.1826e-07
3.18607e-07
3.18955e-07
3.19303e-07
3.19652e-07
3.20003e-07
3.20353e-07
3.20705e-07
3.21057e-07
3.2141e-07
3.21764e-07
3.22119e-07
3.22474e-07
3.2283e-07
3.23187e-07
3.23545e-07
3.23903e-07
3.24263e-07
3.24623e-07
3.24984e-07
3.25345e-07
3.25708e-07
3.26071e-07
3.26435e-07
3.268e-07
3.27165e-07
3.27532e-07
3.27899e-07
3.28267e-07
3.28636e-07
3.29006e-07
3.29376e-07
3.29748e-07
3.3012e-07
3.30493e-07
3.30867e-07
3.31242e-07
3.31617e-07
3.31994e-07
3.32371e-07
3.32749e-07
3.33128e-07
3.33508e-07
3.33889e-07
3.34271e-07
3.34653e-07
3.35037e-07
3.35421e-07
3.35806e-07
3.36193e-07
3.3658e-07
3.36968e-07
3.37356e-07
3.37746e-07
3.38137e-07
3.38529e-07
3.38921e-07
3.39315e-07
3.39709e-07
3.40104e-07
3.40501e-07
3.40898e-07
3.41295e-07
3.41692e-07
3.42092e-07
3.42493e-07
3.42895e-07
3.43298e-07
3.43702e-07
3.44107e-07
3.44513e-07
3.4492e-07
3.45328e-07
3.45737e-07
3.46146e-07
3.46557e-07
3.46969e-07
3.47382e-07
3.47796e-07
3.48211e-07
3.48627e-07
3.49044e-07
3.49462e-07
3.49881e-07
3.503e-07
3.50722e-07
3.51144e-07
3.51567e-07
3.51991e-07
3.52416e-07
3.52842e-07
3.53269e-07
3.53698e-07
3.54127e-07
3.54557e-07
3.54989e-07
3.55421e-07
3.55855e-07
3.5629e-07
3.56725e-07
3.57162e-07
3.576e-07
3.58039e-07
3.58479e-07
3.5892e-07
3.59363e-07
3.59806e-07
3.6025e-07
3.60696e-07
3.61142e-07
3.6159e-07
3.62039e-07
3.62489e-07
3.62939e-07
3.63392e-07
3.63845e-07
3.64299e-07
3.64754e-07
3.65211e-07
3.65668e-07
3.66127e-07
3.66587e-07
3.67048e-07
3.6751e-07
3.67973e-07
3.68434e-07
3.68899e-07
3.69366e-07
3.69833e-07
3.70302e-07
3.70772e-07
3.71243e-07
3.71715e-07
3.72188e-07
3.72663e-07
3.73138e-07
3.73615e-07
3.74093e-07
3.74572e-07
3.75052e-07
3.75534e-07
3.76016e-07
3.765e-07
3.76985e-07
3.77471e-07
3.77959e-07
3.78447e-07
3.78937e-07
3.79428e-07
3.7992e-07
3.80413e-07
3.80908e-07
3.81404e-07
3.81901e-07
3.82399e-07
3.82899e-07
3.834e-07
3.83902e-07
3.84406e-07
3.8491e-07
3.85416e-07
3.85924e-07
3.86432e-07
3.86942e-07
3.87454e-07
3.87966e-07
3.8848e-07
3.88996e-07
3.89513e-07
3.90031e-07
3.9055e-07
3.91071e-07
3.91594e-07
3.92117e-07
3.92643e-07
3.93169e-07
3.93697e-07
3.94227e-07
3.94758e-07
3.95291e-07
3.95825e-07
3.9636e-07
3.96897e-07
3.97436e-07
3.97976e-07
3.98518e-07
3.99061e-07
3.99606e-07
4.00152e-07
4.007e-07
4.0125e-07
4.01799e-07
4.02348e-07
4.02902e-07
4.03458e-07
4.04016e-07
4.04575e-07
4.05136e-07
4.05698e-07
4.06263e-07
4.06828e-07
4.07396e-07
4.07965e-07
4.08536e-07
4.09108e-07
4.09682e-07
4.10258e-07
4.10836e-07
4.11415e-07
4.11996e-07
4.12579e-07
4.13163e-07
4.1375e-07
4.14338e-07
4.14927e-07
4.15519e-07
4.16112e-07
4.16706e-07
4.17303e-07
4.17901e-07
4.18501e-07
4.19103e-07
4.19707e-07
4.20312e-07
4.20919e-07
4.21528e-07
4.22139e-07
4.22751e-07
4.23365e-07
4.23981e-07
4.24599e-07
4.25218e-07
4.2584e-07
4.26463e-07
4.27088e-07
4.27715e-07
4.28343e-07
4.28974e-07
4.29606e-07
4.30239e-07
4.30871e-07
4.31508e-07
4.32148e-07
4.32789e-07
4.33431e-07
4.34076e-07
4.34722e-07
4.3537e-07
4.3602e-07
4.36672e-07
4.37325e-07
4.37981e-07
4.38638e-07
4.39298e-07
4.39959e-07
4.40622e-07
4.41287e-07
4.41954e-07
4.42623e-07
4.43294e-07
4.43966e-07
4.44641e-07
4.45318e-07
4.45997e-07
4.46678e-07
4.47361e-07
4.48046e-07
4.48734e-07
4.49423e-07
4.50115e-07
4.50808e-07
4.51504e-07
4.52203e-07
4.52904e-07
4.53607e-07
4.54312e-07
4.5502e-07
4.5573e-07
4.56444e-07
4.57159e-07
4.57878e-07
4.58599e-07
4.59323e-07
4.6005e-07
4.6078e-07
4.61513e-07
4.6225e-07
4.6299e-07
4.63734e-07
4.64481e-07
4.65232e-07
4.65988e-07
4.66748e-07
4.67512e-07
4.68281e-07
4.69056e-07
4.69835e-07
4.70621e-07
4.71413e-07
4.72211e-07
4.73016e-07
4.73829e-07
4.7465e-07
4.75479e-07
4.76318e-07
4.77167e-07
4.78027e-07
4.78898e-07
4.79782e-07
4.80679e-07
4.81592e-07
4.8252e-07
4.83466e-07
4.8443e-07
4.85415e-07
4.86422e-07
4.87452e-07
4.88509e-07
4.89594e-07
4.90709e-07
4.91857e-07
4.93042e-07
4.94265e-07
4.95531e-07
4.96842e-07
4.98203e-07
4.99618e-07
5.01091e-07
5.02627e-07
5.04231e-07
5.0591e-07
5.07668e-07
5.09512e-07
5.1145e-07
5.13489e-07
5.15636e-07
5.179e-07
5.20291e-07
5.22818e-07
5.25492e-07
5.28323e-07
5.31323e-07
5.34506e-07
5.37885e-07
5.41473e-07
5.45287e-07
5.49342e-07
5.53655e-07
5.58244e-07
5.63129e-07
5.6833e-07
5.73867e-07
5.79763e-07
5.86042e-07
5.92728e-07
5.99848e-07
6.07427e-07
6.15495e-07
6.24082e-07
6.33216e-07
6.42932e-07
6.5326e-07
6.64236e-07
6.75895e-07
6.88272e-07
7.01404e-07
7.15329e-07
7.30086e-07
7.45712e-07
7.62246e-07
7.79728e-07
7.98195e-07
8.17684e-07
8.38234e-07
8.59878e-07
8.82651e-07
9.06582e-07
9.317e-07
9.58029e-07
9.85588e-07
1.01439e-06
1.04445e-06
1.07575e-06
1.10831e-06
1.14209e-06
1.17708e-06
1.21323e-06
1.25049e-06
1.28879e-06
1.32806e-06
1.3682e-06
1.40909e-06
1.45059e-06
1.49254e-06
1.53478e-06
1.5771e-06
1.61928e-06
1.66108e-06
1.70223e-06
1.74244e-06
1.78141e-06
1.81882e-06
1.85431e-06
1.88754e-06
1.91812e-06
1.9457e-06
1.96987e-06
1.99027e-06
2.0065e-06
2.0182e-06
2.02496e-06
2.02649e-06
2.02248e-06
2.01259e-06
1.99655e-06
1.9741e-06
1.94502e-06
1.90911e-06
1.86623e-06
1.81627e-06
1.75913e-06
1.6948e-06
1.62328e-06
1.54465e-06
1.45902e-06
1.36658e-06
1.26758e-06
1.16237e-06
1.05138e-06
9.35153e-07
8.14368e-07
6.89867e-07
5.62684e-07
4.34095e-07
3.05661e-07
1.79297e-07
5.73403e-08
)
;

boundaryField
{
    fixedWall
    {
        type            zeroGradient;
    }
    outlet
    {
        type            inletOutlet;
        inletValue      uniform 0;
        value           uniform 0;
    }
    defaultFaces
    {
        type            empty;
    }
}


// ************************************************************************* //
