/*--------------------------------*- C++ -*----------------------------------*\
| =========                 |                                                 |
| \\      /  F ield         | OpenFOAM: The Open Source CFD Toolbox           |
|  \\    /   O peration     | Version:  2406                                  |
|   \\  /    A nd           | Website:  www.openfoam.com                      |
|    \\/     M anipulation  |                                                 |
\*---------------------------------------------------------------------------*/
FoamFile
{
    version     2.0;
    format      ascii;
    arch        "LSB;label=32;scalar=64";
    class       volScalarField;
    location    "9.2";
    object      T;
}
// * * * * * * * * * * * * * * * * * * * * * * * * * * * * * * * * * * * * * //

dimensions      [0 0 0 1 0 0 0];

internalField   nonuniform List<scalar> 
1000
(
306.443
331.111
353.865
375.023
394.82
413.438
431.02
447.683
463.519
478.61
493.021
506.809
520.025
532.71
544.901
556.633
567.933
578.829
589.343
599.496
609.309
618.797
627.977
636.863
645.468
653.806
661.886
669.72
677.317
684.687
691.838
698.777
705.513
712.052
718.402
724.568
730.556
736.372
742.021
747.509
752.84
758.019
763.05
767.938
772.687
777.3
781.782
786.135
790.364
794.472
798.463
802.338
806.102
809.757
813.306
816.752
820.098
823.345
826.498
829.558
832.527
835.408
838.203
840.915
843.545
846.096
848.57
850.968
853.293
855.546
857.73
859.846
861.896
863.882
865.805
867.668
869.471
871.216
872.905
874.54
876.121
877.651
879.13
880.56
881.943
883.279
884.571
885.819
887.024
888.188
889.312
890.397
891.445
892.455
893.43
894.371
895.277
896.152
896.995
897.807
898.589
899.343
900.069
900.768
901.441
902.088
902.711
903.311
903.887
904.441
904.974
905.486
905.977
906.45
906.903
907.339
907.757
908.158
908.543
908.912
909.266
909.605
909.93
910.242
910.54
910.826
911.1
911.362
911.612
911.852
912.081
912.301
912.51
912.711
912.902
913.084
913.259
913.425
913.584
913.736
913.881
914.018
914.15
914.275
914.394
914.508
914.616
914.719
914.817
914.909
914.998
915.082
915.163
915.239
915.311
915.38
915.445
915.507
915.566
915.622
915.674
915.725
915.772
915.817
915.859
915.9
915.938
915.974
916.008
916.04
916.07
916.099
916.126
916.152
916.176
916.198
916.22
916.24
916.259
916.277
916.294
916.309
916.324
916.338
916.351
916.363
916.375
916.386
916.396
916.405
916.414
916.422
916.43
916.437
916.444
916.45
916.456
916.461
916.466
916.471
916.475
916.479
916.482
916.486
916.489
916.492
916.494
916.497
916.499
916.501
916.502
916.504
916.505
916.507
916.508
916.509
916.51
916.51
916.511
916.511
916.512
916.512
916.512
916.513
916.513
916.513
916.513
916.513
916.513
916.512
916.512
916.512
916.512
916.511
916.511
916.511
916.51
916.51
916.509
916.509
916.508
916.508
916.507
916.507
916.506
916.506
916.505
916.505
916.504
916.504
916.503
916.503
916.502
916.502
916.501
916.501
916.5
916.5
916.499
916.499
916.498
916.498
916.497
916.497
916.496
916.496
916.495
916.495
916.494
916.494
916.494
916.493
916.493
916.493
916.492
916.492
916.492
916.491
916.491
916.491
916.49
916.49
916.49
916.49
916.489
916.489
916.489
916.489
916.489
916.489
916.488
916.488
916.488
916.488
916.488
916.488
916.488
916.488
916.488
916.488
916.488
916.488
916.488
916.488
916.488
916.488
916.488
916.488
916.488
916.488
916.489
916.489
916.489
916.489
916.489
916.489
916.489
916.49
916.49
916.49
916.49
916.49
916.491
916.491
916.491
916.491
916.492
916.492
916.492
916.492
916.493
916.493
916.493
916.494
916.494
916.494
916.494
916.495
916.495
916.495
916.496
916.496
916.496
916.497
916.497
916.497
916.498
916.498
916.498
916.499
916.499
916.499
916.499
916.5
916.5
916.5
916.501
916.501
916.501
916.502
916.502
916.502
916.503
916.503
916.503
916.503
916.504
916.504
916.504
916.505
916.505
916.505
916.505
916.506
916.506
916.506
916.506
916.507
916.507
916.507
916.507
916.507
916.508
916.508
916.508
916.508
916.508
916.509
916.509
916.509
916.509
916.509
916.509
916.51
916.51
916.51
916.51
916.51
916.51
916.51
916.51
916.511
916.511
916.511
916.511
916.511
916.511
916.511
916.511
916.511
916.511
916.511
916.511
916.512
916.512
916.512
916.512
916.512
916.512
916.512
916.512
916.512
916.512
916.512
916.512
916.512
916.512
916.512
916.512
916.512
916.512
916.512
916.512
916.512
916.512
916.512
916.512
916.513
916.513
916.513
916.513
916.513
916.513
916.513
916.513
916.513
916.513
916.513
916.513
916.513
916.513
916.513
916.513
916.513
916.513
916.513
916.513
916.513
916.513
916.513
916.513
916.513
916.513
916.513
916.514
916.514
916.514
916.514
916.514
916.514
916.514
916.514
916.514
916.514
916.514
916.514
916.514
916.514
916.514
916.514
916.514
916.514
916.514
916.514
916.514
916.514
916.514
916.515
916.515
916.515
916.515
916.515
916.515
916.515
916.515
916.515
916.515
916.515
916.515
916.515
916.515
916.515
916.515
916.515
916.515
916.515
916.515
916.515
916.515
916.515
916.515
916.515
916.515
916.515
916.515
916.515
916.515
916.515
916.515
916.515
916.515
916.515
916.515
916.515
916.515
916.515
916.515
916.515
916.515
916.515
916.515
916.515
916.515
916.515
916.515
916.515
916.515
916.515
916.515
916.515
916.515
916.515
916.515
916.515
916.515
916.515
916.515
916.515
916.515
916.515
916.515
916.515
916.515
916.515
916.515
916.515
916.515
916.515
916.515
916.515
916.515
916.515
916.515
916.515
916.515
916.515
916.515
916.515
916.515
916.515
916.516
916.516
916.516
916.516
916.516
916.516
916.516
916.516
916.516
916.516
916.516
916.516
916.516
916.516
916.516
916.517
916.517
916.517
916.517
916.517
916.517
916.517
916.517
916.517
916.517
916.517
916.517
916.517
916.518
916.518
916.518
916.518
916.518
916.518
916.518
916.518
916.518
916.518
916.518
916.518
916.518
916.518
916.518
916.518
916.519
916.519
916.519
916.519
916.519
916.519
916.519
916.519
916.519
916.519
916.519
916.519
916.519
916.519
916.519
916.519
916.519
916.519
916.519
916.519
916.519
916.519
916.519
916.519
916.518
916.518
916.518
916.518
916.518
916.518
916.518
916.518
916.518
916.518
916.518
916.518
916.518
916.518
916.518
916.517
916.517
916.517
916.517
916.517
916.517
916.517
916.517
916.517
916.517
916.517
916.516
916.516
916.516
916.516
916.516
916.516
916.516
916.516
916.516
916.516
916.516
916.516
916.516
916.516
916.515
916.515
916.515
916.515
916.515
916.515
916.515
916.515
916.515
916.515
916.515
916.515
916.515
916.515
916.515
916.515
916.515
916.515
916.515
916.515
916.516
916.516
916.516
916.516
916.516
916.516
916.516
916.516
916.516
916.516
916.517
916.517
916.517
916.517
916.517
916.517
916.517
916.518
916.518
916.518
916.518
916.518
916.519
916.519
916.519
916.519
916.519
916.519
916.52
916.52
916.52
916.52
916.52
916.521
916.521
916.521
916.521
916.521
916.521
916.522
916.522
916.522
916.522
916.522
916.522
916.522
916.523
916.523
916.523
916.523
916.523
916.523
916.523
916.523
916.523
916.523
916.523
916.523
916.523
916.523
916.523
916.523
916.523
916.523
916.523
916.523
916.523
916.523
916.522
916.522
916.522
916.522
916.522
916.522
916.521
916.521
916.521
916.521
916.521
916.52
916.52
916.52
916.52
916.519
916.519
916.519
916.518
916.518
916.518
916.518
916.517
916.517
916.517
916.516
916.516
916.516
916.516
916.515
916.515
916.515
916.514
916.514
916.514
916.513
916.513
916.513
916.513
916.512
916.512
916.512
916.512
916.511
916.511
916.511
916.51
916.51
916.51
916.51
916.509
916.509
916.509
916.509
916.508
916.508
916.508
916.507
916.507
916.507
916.506
916.506
916.505
916.505
916.504
916.504
916.503
916.502
916.502
916.501
916.5
916.499
916.498
916.496
916.495
916.493
916.492
916.49
916.488
916.485
916.483
916.48
916.477
916.473
916.469
916.465
916.46
916.455
916.449
916.443
916.436
916.428
916.42
916.41
916.4
916.389
916.376
916.362
916.347
916.331
916.313
916.293
916.272
916.248
916.223
916.195
916.164
916.131
916.095
916.055
916.012
915.966
915.915
915.86
915.801
915.736
915.666
915.59
915.509
915.42
915.325
915.221
915.11
914.99
914.861
914.723
914.573
914.413
914.241
914.056
913.858
913.646
913.418
913.175
912.916
912.638
912.342
912.026
911.689
911.33
910.949
910.542
910.111
909.653
909.166
908.651
908.104
907.525
906.913
906.265
905.58
904.857
904.094
903.29
902.442
901.548
900.608
899.619
898.579
897.487
896.34
895.136
893.874
892.551
891.165
889.714
888.195
886.606
884.945
883.209
881.396
879.503
877.527
875.466
873.316
871.075
868.739
866.306
863.77
861.13
858.382
855.52
852.542
849.443
846.218
842.862
839.371
835.738
831.959
828.027
823.935
819.677
815.245
810.631
805.828
800.826
795.615
790.186
784.528
778.629
772.477
766.058
759.359
752.365
745.058
737.423
729.441
721.122
712.492
703.353
693.784
683.76
673.255
662.243
650.697
638.587
625.885
612.561
598.587
583.934
568.576
552.488
535.651
518.048
499.672
480.521
460.609
439.959
418.614
396.633
374.104
351.139
327.886
304.538
)
;

boundaryField
{
    fixedWall
    {
        type            fixedValue;
        value           uniform 293;
    }
    outlet
    {
        type            inletOutlet;
        inletValue      uniform 293;
        value           uniform 293;
    }
    defaultFaces
    {
        type            empty;
    }
}


// ************************************************************************* //
