/*--------------------------------*- C++ -*----------------------------------*\
| =========                 |                                                 |
| \\      /  F ield         | OpenFOAM: The Open Source CFD Toolbox           |
|  \\    /   O peration     | Version:  2406                                  |
|   \\  /    A nd           | Website:  www.openfoam.com                      |
|    \\/     M anipulation  |                                                 |
\*---------------------------------------------------------------------------*/
FoamFile
{
    version     2.0;
    format      ascii;
    arch        "LSB;label=32;scalar=64";
    class       surfaceScalarField;
    location    "13.1";
    object      phi;
}
// * * * * * * * * * * * * * * * * * * * * * * * * * * * * * * * * * * * * * //

dimensions      [1 0 -1 0 0 0 0];

oriented        oriented;

internalField   nonuniform List<scalar> 
999
(
-1.22212e-08
-4.14797e-08
-8.19524e-08
-1.2997e-07
-1.83114e-07
-2.39751e-07
-2.9873e-07
-3.59236e-07
-4.20682e-07
-4.8264e-07
-5.44788e-07
-6.0689e-07
-6.68757e-07
-7.30262e-07
-7.91295e-07
-8.51781e-07
-9.11666e-07
-9.70902e-07
-1.02945e-06
-1.0873e-06
-1.14442e-06
-1.20081e-06
-1.25646e-06
-1.31137e-06
-1.36554e-06
-1.41896e-06
-1.47165e-06
-1.5236e-06
-1.57482e-06
-1.62533e-06
-1.67511e-06
-1.72418e-06
-1.77256e-06
-1.82024e-06
-1.86723e-06
-1.91355e-06
-1.9592e-06
-2.00418e-06
-2.04851e-06
-2.09219e-06
-2.13524e-06
-2.17765e-06
-2.21944e-06
-2.26062e-06
-2.30118e-06
-2.34114e-06
-2.38051e-06
-2.41929e-06
-2.45749e-06
-2.49512e-06
-2.53217e-06
-2.56866e-06
-2.6046e-06
-2.64e-06
-2.67484e-06
-2.70915e-06
-2.74293e-06
-2.77619e-06
-2.80892e-06
-2.84114e-06
-2.87285e-06
-2.90406e-06
-2.93477e-06
-2.96499e-06
-2.99472e-06
-3.02397e-06
-3.05274e-06
-3.08104e-06
-3.10888e-06
-3.13625e-06
-3.16317e-06
-3.18963e-06
-3.21565e-06
-3.24123e-06
-3.26636e-06
-3.29107e-06
-3.31534e-06
-3.3392e-06
-3.36263e-06
-3.38566e-06
-3.40827e-06
-3.43048e-06
-3.45228e-06
-3.47369e-06
-3.49471e-06
-3.51534e-06
-3.53559e-06
-3.55547e-06
-3.57496e-06
-3.59409e-06
-3.61286e-06
-3.63127e-06
-3.64932e-06
-3.66701e-06
-3.68436e-06
-3.70137e-06
-3.71804e-06
-3.73438e-06
-3.75038e-06
-3.76606e-06
-3.78142e-06
-3.79646e-06
-3.81119e-06
-3.82561e-06
-3.83973e-06
-3.85355e-06
-3.86707e-06
-3.8803e-06
-3.89324e-06
-3.9059e-06
-3.91828e-06
-3.93039e-06
-3.94222e-06
-3.95379e-06
-3.9651e-06
-3.97614e-06
-3.98694e-06
-3.99748e-06
-4.00778e-06
-4.01783e-06
-4.02764e-06
-4.03722e-06
-4.04657e-06
-4.0557e-06
-4.0646e-06
-4.07329e-06
-4.08176e-06
-4.09001e-06
-4.09806e-06
-4.10591e-06
-4.11356e-06
-4.12101e-06
-4.12827e-06
-4.13534e-06
-4.14222e-06
-4.14892e-06
-4.15545e-06
-4.1618e-06
-4.16798e-06
-4.17399e-06
-4.17984e-06
-4.18552e-06
-4.19105e-06
-4.19643e-06
-4.20165e-06
-4.20673e-06
-4.21167e-06
-4.21646e-06
-4.22111e-06
-4.22563e-06
-4.23002e-06
-4.23428e-06
-4.23841e-06
-4.24242e-06
-4.24631e-06
-4.25008e-06
-4.25374e-06
-4.25729e-06
-4.26072e-06
-4.26406e-06
-4.26728e-06
-4.27041e-06
-4.27344e-06
-4.27638e-06
-4.27922e-06
-4.28197e-06
-4.28465e-06
-4.28721e-06
-4.28969e-06
-4.2921e-06
-4.29442e-06
-4.29667e-06
-4.29885e-06
-4.30095e-06
-4.30298e-06
-4.30494e-06
-4.30681e-06
-4.30863e-06
-4.31039e-06
-4.3121e-06
-4.31375e-06
-4.31533e-06
-4.31686e-06
-4.31832e-06
-4.31974e-06
-4.32112e-06
-4.32245e-06
-4.32372e-06
-4.32495e-06
-4.32613e-06
-4.32726e-06
-4.32836e-06
-4.32942e-06
-4.33044e-06
-4.33142e-06
-4.33236e-06
-4.33326e-06
-4.33413e-06
-4.33497e-06
-4.33577e-06
-4.33654e-06
-4.33729e-06
-4.338e-06
-4.33868e-06
-4.33934e-06
-4.33997e-06
-4.34057e-06
-4.34115e-06
-4.34171e-06
-4.34224e-06
-4.34275e-06
-4.34325e-06
-4.34371e-06
-4.34417e-06
-4.3446e-06
-4.34501e-06
-4.34541e-06
-4.34579e-06
-4.34615e-06
-4.3465e-06
-4.34683e-06
-4.34715e-06
-4.34746e-06
-4.34775e-06
-4.34803e-06
-4.34829e-06
-4.34855e-06
-4.34879e-06
-4.34902e-06
-4.34924e-06
-4.34945e-06
-4.34965e-06
-4.34984e-06
-4.35002e-06
-4.3502e-06
-4.35036e-06
-4.35052e-06
-4.35067e-06
-4.35081e-06
-4.35095e-06
-4.35108e-06
-4.3512e-06
-4.35132e-06
-4.35143e-06
-4.35154e-06
-4.35164e-06
-4.35173e-06
-4.35182e-06
-4.35191e-06
-4.35199e-06
-4.35207e-06
-4.35214e-06
-4.35221e-06
-4.35228e-06
-4.35234e-06
-4.3524e-06
-4.35245e-06
-4.35251e-06
-4.35256e-06
-4.3526e-06
-4.35265e-06
-4.35269e-06
-4.35273e-06
-4.35277e-06
-4.3528e-06
-4.35284e-06
-4.35287e-06
-4.35289e-06
-4.35292e-06
-4.35295e-06
-4.35297e-06
-4.35299e-06
-4.35301e-06
-4.35303e-06
-4.35305e-06
-4.35306e-06
-4.35308e-06
-4.35309e-06
-4.35311e-06
-4.35312e-06
-4.35313e-06
-4.35314e-06
-4.35315e-06
-4.35316e-06
-4.35317e-06
-4.35317e-06
-4.35318e-06
-4.35318e-06
-4.35319e-06
-4.35319e-06
-4.3532e-06
-4.3532e-06
-4.3532e-06
-4.35321e-06
-4.35321e-06
-4.35321e-06
-4.35321e-06
-4.35321e-06
-4.35321e-06
-4.35321e-06
-4.35321e-06
-4.35321e-06
-4.35321e-06
-4.35321e-06
-4.35321e-06
-4.35321e-06
-4.35321e-06
-4.35321e-06
-4.3532e-06
-4.3532e-06
-4.3532e-06
-4.3532e-06
-4.3532e-06
-4.3532e-06
-4.35319e-06
-4.35319e-06
-4.35319e-06
-4.35319e-06
-4.35318e-06
-4.35318e-06
-4.35318e-06
-4.35317e-06
-4.35317e-06
-4.35317e-06
-4.35317e-06
-4.35316e-06
-4.35316e-06
-4.35316e-06
-4.35316e-06
-4.35315e-06
-4.35315e-06
-4.35315e-06
-4.35315e-06
-4.35314e-06
-4.35314e-06
-4.35314e-06
-4.35314e-06
-4.35314e-06
-4.35313e-06
-4.35313e-06
-4.35313e-06
-4.35313e-06
-4.35313e-06
-4.35312e-06
-4.35312e-06
-4.35312e-06
-4.35312e-06
-4.35312e-06
-4.35311e-06
-4.35311e-06
-4.35311e-06
-4.35311e-06
-4.35311e-06
-4.35311e-06
-4.35311e-06
-4.3531e-06
-4.3531e-06
-4.3531e-06
-4.3531e-06
-4.3531e-06
-4.3531e-06
-4.3531e-06
-4.3531e-06
-4.3531e-06
-4.3531e-06
-4.3531e-06
-4.35309e-06
-4.35309e-06
-4.35309e-06
-4.35309e-06
-4.35309e-06
-4.35309e-06
-4.35309e-06
-4.35309e-06
-4.35309e-06
-4.35309e-06
-4.35309e-06
-4.35309e-06
-4.35309e-06
-4.35309e-06
-4.35309e-06
-4.35309e-06
-4.35309e-06
-4.35309e-06
-4.35309e-06
-4.35309e-06
-4.35309e-06
-4.35309e-06
-4.35309e-06
-4.35309e-06
-4.35309e-06
-4.35309e-06
-4.35309e-06
-4.35309e-06
-4.35309e-06
-4.35309e-06
-4.35309e-06
-4.35309e-06
-4.35309e-06
-4.35309e-06
-4.35309e-06
-4.35309e-06
-4.35309e-06
-4.35309e-06
-4.35309e-06
-4.35309e-06
-4.3531e-06
-4.3531e-06
-4.3531e-06
-4.3531e-06
-4.3531e-06
-4.3531e-06
-4.3531e-06
-4.3531e-06
-4.3531e-06
-4.3531e-06
-4.3531e-06
-4.3531e-06
-4.3531e-06
-4.3531e-06
-4.3531e-06
-4.3531e-06
-4.3531e-06
-4.3531e-06
-4.3531e-06
-4.3531e-06
-4.3531e-06
-4.3531e-06
-4.3531e-06
-4.3531e-06
-4.3531e-06
-4.3531e-06
-4.3531e-06
-4.3531e-06
-4.3531e-06
-4.3531e-06
-4.3531e-06
-4.3531e-06
-4.35311e-06
-4.3531e-06
-4.3531e-06
-4.35311e-06
-4.35311e-06
-4.35311e-06
-4.35311e-06
-4.35311e-06
-4.35311e-06
-4.35311e-06
-4.35311e-06
-4.35311e-06
-4.35311e-06
-4.35311e-06
-4.35311e-06
-4.35311e-06
-4.35311e-06
-4.35311e-06
-4.35311e-06
-4.35311e-06
-4.35311e-06
-4.35311e-06
-4.35311e-06
-4.35311e-06
-4.35311e-06
-4.35311e-06
-4.35311e-06
-4.35311e-06
-4.35311e-06
-4.35311e-06
-4.35311e-06
-4.35311e-06
-4.35311e-06
-4.35311e-06
-4.3531e-06
-4.3531e-06
-4.3531e-06
-4.3531e-06
-4.3531e-06
-4.3531e-06
-4.3531e-06
-4.3531e-06
-4.3531e-06
-4.3531e-06
-4.3531e-06
-4.3531e-06
-4.3531e-06
-4.3531e-06
-4.3531e-06
-4.3531e-06
-4.3531e-06
-4.3531e-06
-4.3531e-06
-4.3531e-06
-4.3531e-06
-4.3531e-06
-4.3531e-06
-4.3531e-06
-4.3531e-06
-4.3531e-06
-4.35309e-06
-4.35309e-06
-4.35309e-06
-4.35309e-06
-4.35309e-06
-4.35309e-06
-4.35309e-06
-4.35309e-06
-4.35309e-06
-4.35309e-06
-4.35309e-06
-4.35309e-06
-4.35309e-06
-4.35309e-06
-4.35309e-06
-4.35309e-06
-4.35309e-06
-4.35309e-06
-4.35309e-06
-4.35309e-06
-4.35309e-06
-4.35309e-06
-4.35309e-06
-4.35309e-06
-4.35309e-06
-4.35309e-06
-4.35309e-06
-4.35309e-06
-4.35309e-06
-4.35308e-06
-4.35308e-06
-4.35308e-06
-4.35308e-06
-4.35308e-06
-4.35308e-06
-4.35308e-06
-4.35308e-06
-4.35308e-06
-4.35308e-06
-4.35308e-06
-4.35308e-06
-4.35308e-06
-4.35308e-06
-4.35308e-06
-4.35308e-06
-4.35308e-06
-4.35308e-06
-4.35308e-06
-4.35308e-06
-4.35307e-06
-4.35308e-06
-4.35307e-06
-4.35307e-06
-4.35307e-06
-4.35307e-06
-4.35307e-06
-4.35307e-06
-4.35307e-06
-4.35307e-06
-4.35307e-06
-4.35307e-06
-4.35307e-06
-4.35307e-06
-4.35307e-06
-4.35307e-06
-4.35307e-06
-4.35307e-06
-4.35307e-06
-4.35307e-06
-4.35307e-06
-4.35307e-06
-4.35307e-06
-4.35307e-06
-4.35307e-06
-4.35307e-06
-4.35307e-06
-4.35307e-06
-4.35307e-06
-4.35307e-06
-4.35307e-06
-4.35307e-06
-4.35307e-06
-4.35306e-06
-4.35306e-06
-4.35306e-06
-4.35306e-06
-4.35306e-06
-4.35306e-06
-4.35306e-06
-4.35306e-06
-4.35307e-06
-4.35307e-06
-4.35307e-06
-4.35307e-06
-4.35307e-06
-4.35306e-06
-4.35307e-06
-4.35306e-06
-4.35306e-06
-4.35306e-06
-4.35307e-06
-4.35306e-06
-4.35306e-06
-4.35306e-06
-4.35306e-06
-4.35306e-06
-4.35306e-06
-4.35306e-06
-4.35306e-06
-4.35306e-06
-4.35306e-06
-4.35307e-06
-4.35306e-06
-4.35306e-06
-4.35307e-06
-4.35307e-06
-4.35307e-06
-4.35307e-06
-4.35307e-06
-4.35307e-06
-4.35307e-06
-4.35307e-06
-4.35307e-06
-4.35307e-06
-4.35306e-06
-4.35307e-06
-4.35307e-06
-4.35307e-06
-4.35307e-06
-4.35307e-06
-4.35307e-06
-4.35307e-06
-4.35307e-06
-4.35306e-06
-4.35306e-06
-4.35306e-06
-4.35306e-06
-4.35306e-06
-4.35306e-06
-4.35306e-06
-4.35306e-06
-4.35306e-06
-4.35306e-06
-4.35306e-06
-4.35306e-06
-4.35306e-06
-4.35306e-06
-4.35306e-06
-4.35306e-06
-4.35306e-06
-4.35306e-06
-4.35306e-06
-4.35306e-06
-4.35306e-06
-4.35306e-06
-4.35306e-06
-4.35306e-06
-4.35306e-06
-4.35306e-06
-4.35306e-06
-4.35305e-06
-4.35305e-06
-4.35305e-06
-4.35305e-06
-4.35305e-06
-4.35305e-06
-4.35305e-06
-4.35305e-06
-4.35305e-06
-4.35305e-06
-4.35304e-06
-4.35304e-06
-4.35304e-06
-4.35304e-06
-4.35304e-06
-4.35304e-06
-4.35304e-06
-4.35304e-06
-4.35304e-06
-4.35304e-06
-4.35304e-06
-4.35303e-06
-4.35303e-06
-4.35303e-06
-4.35303e-06
-4.35303e-06
-4.35303e-06
-4.35303e-06
-4.35303e-06
-4.35303e-06
-4.35303e-06
-4.35303e-06
-4.35303e-06
-4.35303e-06
-4.35303e-06
-4.35303e-06
-4.35302e-06
-4.35302e-06
-4.35302e-06
-4.35302e-06
-4.35302e-06
-4.35302e-06
-4.35302e-06
-4.35302e-06
-4.35303e-06
-4.35303e-06
-4.35303e-06
-4.35303e-06
-4.35303e-06
-4.35303e-06
-4.35303e-06
-4.35303e-06
-4.35303e-06
-4.35303e-06
-4.35303e-06
-4.35303e-06
-4.35304e-06
-4.35304e-06
-4.35304e-06
-4.35305e-06
-4.35305e-06
-4.35305e-06
-4.35305e-06
-4.35306e-06
-4.35306e-06
-4.35306e-06
-4.35307e-06
-4.35308e-06
-4.35308e-06
-4.35309e-06
-4.35309e-06
-4.3531e-06
-4.35311e-06
-4.35312e-06
-4.35313e-06
-4.35313e-06
-4.35315e-06
-4.35316e-06
-4.35317e-06
-4.35318e-06
-4.3532e-06
-4.35321e-06
-4.35323e-06
-4.35324e-06
-4.35326e-06
-4.35328e-06
-4.3533e-06
-4.35333e-06
-4.35335e-06
-4.35338e-06
-4.35341e-06
-4.35344e-06
-4.35347e-06
-4.3535e-06
-4.35354e-06
-4.35358e-06
-4.35362e-06
-4.35367e-06
-4.35372e-06
-4.35377e-06
-4.35383e-06
-4.35389e-06
-4.35395e-06
-4.35402e-06
-4.3541e-06
-4.35417e-06
-4.35426e-06
-4.35435e-06
-4.35445e-06
-4.35455e-06
-4.35466e-06
-4.35478e-06
-4.3549e-06
-4.35504e-06
-4.35518e-06
-4.35533e-06
-4.3555e-06
-4.35567e-06
-4.35585e-06
-4.35605e-06
-4.35626e-06
-4.35648e-06
-4.35672e-06
-4.35697e-06
-4.35724e-06
-4.35752e-06
-4.35783e-06
-4.35815e-06
-4.35849e-06
-4.35886e-06
-4.35925e-06
-4.35966e-06
-4.36009e-06
-4.36055e-06
-4.36104e-06
-4.36157e-06
-4.36212e-06
-4.3627e-06
-4.36332e-06
-4.36398e-06
-4.36468e-06
-4.36541e-06
-4.36619e-06
-4.36702e-06
-4.36789e-06
-4.36881e-06
-4.36978e-06
-4.37081e-06
-4.3719e-06
-4.37305e-06
-4.37426e-06
-4.37553e-06
-4.37688e-06
-4.37831e-06
-4.3798e-06
-4.38138e-06
-4.38305e-06
-4.3848e-06
-4.38665e-06
-4.38859e-06
-4.39063e-06
-4.39278e-06
-4.39504e-06
-4.39741e-06
-4.3999e-06
-4.40252e-06
-4.40527e-06
-4.40816e-06
-4.41119e-06
-4.41437e-06
-4.4177e-06
-4.42119e-06
-4.42485e-06
-4.42869e-06
-4.4327e-06
-4.43691e-06
-4.44131e-06
-4.44591e-06
-4.45072e-06
-4.45575e-06
-4.46101e-06
-4.46651e-06
-4.47225e-06
-4.47824e-06
-4.48449e-06
-4.49102e-06
-4.49783e-06
-4.50493e-06
-4.51232e-06
-4.52004e-06
-4.52807e-06
-4.53643e-06
-4.54514e-06
-4.5542e-06
-4.56363e-06
-4.57344e-06
-4.58363e-06
-4.59423e-06
-4.60524e-06
-4.61668e-06
-4.62856e-06
-4.64089e-06
-4.65368e-06
-4.66696e-06
-4.68073e-06
-4.695e-06
-4.70979e-06
-4.72512e-06
-4.741e-06
-4.75744e-06
-4.77447e-06
-4.79208e-06
-4.81031e-06
-4.82916e-06
-4.84865e-06
-4.8688e-06
-4.88962e-06
-4.91113e-06
-4.93334e-06
-4.95628e-06
-4.97995e-06
-5.00438e-06
-5.02958e-06
-5.05558e-06
-5.08238e-06
-5.11e-06
-5.13847e-06
-5.1678e-06
-5.198e-06
-5.22911e-06
-5.26112e-06
-5.29407e-06
-5.32798e-06
-5.36285e-06
-5.39871e-06
-5.43558e-06
-5.47348e-06
-5.51242e-06
-5.55243e-06
-5.59353e-06
-5.63573e-06
-5.67905e-06
-5.72352e-06
-5.76915e-06
-5.81597e-06
-5.86399e-06
-5.91324e-06
-5.96373e-06
-6.01548e-06
-6.06853e-06
-6.12288e-06
-6.17856e-06
-6.2356e-06
-6.294e-06
-6.3538e-06
-6.41501e-06
-6.47766e-06
-6.54178e-06
-6.60737e-06
-6.67447e-06
-6.74309e-06
-6.81327e-06
-6.88502e-06
-6.95838e-06
-7.03335e-06
-7.10998e-06
-7.18827e-06
-7.26827e-06
-7.34999e-06
-7.43346e-06
-7.5187e-06
-7.60575e-06
-7.69464e-06
-7.78538e-06
-7.87802e-06
-7.97257e-06
-8.06908e-06
-8.16756e-06
-8.26806e-06
-8.3706e-06
-8.47523e-06
-8.58197e-06
-8.69086e-06
-8.80194e-06
-8.91524e-06
-9.0308e-06
-9.14867e-06
-9.26888e-06
-9.39148e-06
-9.51651e-06
-9.64402e-06
-9.77406e-06
-9.90667e-06
-1.00419e-05
-1.01798e-05
-1.03205e-05
-1.0464e-05
-1.06104e-05
-1.07597e-05
-1.09122e-05
-1.10678e-05
-1.12254e-05
-1.13864e-05
-1.15508e-05
-1.17187e-05
-1.18901e-05
-1.20652e-05
-1.22439e-05
-1.24263e-05
-1.26125e-05
-1.28024e-05
-1.29962e-05
-1.3194e-05
-1.33957e-05
-1.36015e-05
-1.38114e-05
-1.40254e-05
-1.42434e-05
-1.44656e-05
-1.46919e-05
-1.49222e-05
-1.51564e-05
-1.53942e-05
-1.56356e-05
-1.58801e-05
-1.61274e-05
-1.63769e-05
-1.6628e-05
-1.68799e-05
-1.71315e-05
-1.73816e-05
-1.76286e-05
-1.78708e-05
-1.81058e-05
-1.83309e-05
-1.8543e-05
-1.87382e-05
-1.89119e-05
-1.90588e-05
-1.91729e-05
-1.92472e-05
)
;

boundaryField
{
    fixedWall
    {
        type            calculated;
        value           uniform 0;
    }
    outlet
    {
        type            calculated;
        value           uniform -1.92738e-05;
    }
    defaultFaces
    {
        type            empty;
    }
}


// ************************************************************************* //
