/*--------------------------------*- C++ -*----------------------------------*\
| =========                 |                                                 |
| \\      /  F ield         | OpenFOAM: The Open Source CFD Toolbox           |
|  \\    /   O peration     | Version:  2406                                  |
|   \\  /    A nd           | Website:  www.openfoam.com                      |
|    \\/     M anipulation  |                                                 |
\*---------------------------------------------------------------------------*/
FoamFile
{
    version     2.0;
    format      ascii;
    arch        "LSB;label=32;scalar=64";
    class       volScalarField;
    location    "13.1";
    object      Qdot;
}
// * * * * * * * * * * * * * * * * * * * * * * * * * * * * * * * * * * * * * //

dimensions      [1 -1 -3 0 0 0 0];

internalField   nonuniform List<scalar> 
1000
(
4.98402e-14
-1.41417e-17
-1.57683e-16
-1.1836e-15
3.80442e-09
1.52177e-08
5.189e-08
1.59993e-07
4.22729e-07
1.04661e-06
2.34523e-06
4.8795e-06
9.5035e-06
1.74413e-05
3.04351e-05
5.07556e-05
8.13178e-05
0.000125721
0.000188239
0.000273834
0.000388088
0.000537124
0.000727498
0.000966058
0.00125979
0.00161562
0.00204028
0.00254008
0.00312076
0.00378734
0.00454394
0.00539368
0.00633859
0.00737952
0.00851612
0.0097468
0.0110688
0.0124781
0.0139697
0.0155375
0.0171745
0.0188729
0.0206242
0.0224194
0.0242492
0.0261037
0.0279733
0.0298482
0.0317188
0.0335756
0.0354096
0.0372124
0.0389757
0.0406922
0.0423551
0.0439583
0.0454963
0.0469645
0.0483589
0.0496764
0.0509144
0.0520712
0.0531455
0.0541369
0.0550454
0.0558716
0.0566166
0.0572818
0.0578692
0.0583811
0.05882
0.0591887
0.0594903
0.0597279
0.0599048
0.0600244
0.0600902
0.0601057
0.0600743
0.0599995
0.0598847
0.0597333
0.0595483
0.0593331
0.0590906
0.0588238
0.0585355
0.0582282
0.0579045
0.0575668
0.0572174
0.0568582
0.0564914
0.0561187
0.0557418
0.0553623
0.0549816
0.0546011
0.054222
0.0538452
0.053472
0.0531031
0.0527394
0.0523815
0.0520301
0.0516858
0.0513491
0.0510202
0.0506997
0.0503878
0.0500848
0.0497907
0.0495059
0.0492303
0.0489641
0.0487072
0.0484597
0.0482216
0.0479928
0.0477732
0.0475628
0.0473613
0.0471687
0.0469849
0.0468097
0.0466428
0.0464842
0.0463337
0.046191
0.046056
0.0459285
0.0458082
0.045695
0.0455887
0.045489
0.0453957
0.0453087
0.0452278
0.0451527
0.0450832
0.0450192
0.0449604
0.0449067
0.0448579
0.0448137
0.0447741
0.0447388
0.0447077
0.0446806
0.0446573
0.0446377
0.0446216
0.0446089
0.0445994
0.044593
0.0445896
0.044589
0.0445911
0.0445958
0.044603
0.0446125
0.0446242
0.0446381
0.044654
0.0446718
0.0446915
0.0447129
0.044736
0.0447607
0.0447869
0.0448145
0.0448434
0.0448737
0.0449051
0.0449378
0.0449715
0.0450061
0.0450419
0.0450785
0.0451161
0.0451544
0.0451936
0.0452335
0.0452739
0.0453152
0.0453571
0.0453995
0.0454426
0.0454862
0.0455303
0.0455749
0.04562
0.0456655
0.0457112
0.0457573
0.0458037
0.0458505
0.0458977
0.0459452
0.045993
0.0460411
0.0460893
0.0461378
0.0461866
0.0462355
0.0462846
0.0463339
0.0463834
0.0464331
0.0464829
0.0465328
0.0465829
0.0466332
0.0466835
0.046734
0.0467846
0.0468354
0.0468862
0.0469371
0.0469882
0.0470393
0.0470905
0.0471418
0.0471932
0.0472447
0.0472962
0.0473479
0.0473994
0.0474512
0.0475031
0.0475548
0.0476068
0.0476589
0.047711
0.0477632
0.0478154
0.0478677
0.0479201
0.0479725
0.048025
0.0480776
0.0481302
0.0481826
0.0482354
0.0482882
0.048341
0.0483939
0.0484468
0.0484998
0.0485529
0.0486061
0.0486593
0.0487125
0.0487659
0.0488193
0.0488727
0.0489262
0.0489798
0.0490335
0.0490872
0.0491409
0.0491948
0.0492486
0.0493026
0.0493566
0.0494107
0.0494649
0.0495191
0.0495734
0.0496277
0.0496822
0.0497367
0.0497912
0.0498459
0.0499006
0.0499553
0.0500102
0.0500651
0.0501201
0.0501751
0.0502303
0.0502855
0.0503408
0.0503961
0.0504515
0.050507
0.0505626
0.0506182
0.050674
0.0507298
0.0507856
0.0508416
0.0508976
0.0509538
0.05101
0.0510662
0.0511226
0.0511791
0.0512356
0.0512922
0.0513489
0.0514056
0.0514624
0.0515193
0.0515763
0.0516334
0.0516906
0.0517478
0.0518052
0.0518626
0.0519201
0.0519778
0.0520355
0.0520932
0.0521511
0.0522091
0.0522671
0.0523253
0.0523835
0.0524418
0.0525002
0.0525587
0.0526173
0.052676
0.0527347
0.0527936
0.0528525
0.0529116
0.0529707
0.05303
0.0530893
0.0531487
0.0532082
0.0532679
0.0533276
0.0533874
0.0534473
0.0535073
0.0535674
0.0536275
0.0536878
0.0537482
0.0538087
0.0538693
0.05393
0.0539907
0.0540516
0.0541126
0.0541737
0.0542349
0.0542962
0.0543576
0.0544191
0.0544807
0.0545425
0.0546043
0.0546662
0.0547282
0.0547904
0.0548526
0.0549149
0.0549774
0.0550399
0.0551026
0.0551653
0.0552282
0.0552912
0.0553543
0.0554175
0.0554808
0.0555442
0.0556077
0.0556714
0.0557351
0.055799
0.055863
0.0559271
0.0559911
0.0560554
0.0561199
0.0561844
0.056249
0.0563138
0.0563786
0.0564436
0.0565087
0.0565739
0.0566392
0.0567047
0.0567702
0.0568359
0.0569017
0.0569676
0.0570336
0.0570997
0.057166
0.0572323
0.0572988
0.0573655
0.0574322
0.0574988
0.0575658
0.0576328
0.0577
0.0577673
0.0578348
0.0579023
0.05797
0.0580377
0.0581056
0.0581736
0.0582418
0.05831
0.0583784
0.0584469
0.0585155
0.0585842
0.0586531
0.058722
0.0587911
0.0588603
0.0589297
0.0589992
0.0590687
0.0591385
0.0592083
0.0592783
0.0593484
0.0594186
0.0594889
0.0595593
0.0596299
0.0597006
0.0597714
0.0598424
0.0599135
0.0599847
0.060056
0.0601275
0.060199
0.0602708
0.0603426
0.0604146
0.0604867
0.0605589
0.0606312
0.0607037
0.0607763
0.0608491
0.060922
0.060995
0.0610681
0.0611414
0.0612148
0.0612883
0.061362
0.0614358
0.0615097
0.0615837
0.0616579
0.0617323
0.0618067
0.0618813
0.061956
0.0620309
0.0621059
0.062181
0.0622563
0.0623317
0.0624073
0.062483
0.0625588
0.0626348
0.0627109
0.0627869
0.0628633
0.0629399
0.0630166
0.0630934
0.0631703
0.0632474
0.0633246
0.063402
0.0634795
0.0635571
0.0636349
0.0637129
0.0637909
0.0638692
0.0639475
0.064026
0.0641047
0.0641835
0.0642624
0.0643415
0.0644207
0.0645001
0.0645796
0.0646593
0.0647391
0.0648191
0.0648993
0.0649793
0.0650598
0.0651404
0.0652211
0.065302
0.065383
0.0654642
0.0655455
0.065627
0.0657086
0.0657904
0.0658723
0.0659544
0.0660366
0.066119
0.0662016
0.0662843
0.0663671
0.0664501
0.0665333
0.0666166
0.0667
0.0667837
0.0668675
0.0669514
0.0670355
0.0671198
0.0672042
0.0672888
0.0673735
0.0674584
0.0675434
0.0676287
0.067714
0.0677996
0.0678853
0.0679711
0.0680571
0.0681433
0.0682297
0.0683162
0.0684029
0.0684897
0.0685767
0.0686639
0.0687512
0.0688387
0.0689264
0.0690142
0.0691022
0.0691904
0.0692787
0.0693672
0.0694559
0.0695448
0.0696338
0.069723
0.0698122
0.0699017
0.0699914
0.0700813
0.0701713
0.0702615
0.0703519
0.0704425
0.0705332
0.0706241
0.0707152
0.0708065
0.0708979
0.0709895
0.0710813
0.0711732
0.0712654
0.0713577
0.0714502
0.0715429
0.0716357
0.0717288
0.071822
0.0719154
0.072009
0.0721027
0.0721967
0.0722908
0.0723851
0.0724796
0.0725743
0.0726692
0.0727642
0.0728595
0.0729549
0.0730505
0.0731464
0.0732424
0.0733386
0.0734349
0.0735315
0.0736283
0.0737252
0.0738224
0.0739197
0.0740172
0.074115
0.0742129
0.074311
0.0744093
0.0745078
0.0746066
0.0747055
0.0748046
0.0749039
0.0750034
0.0751031
0.075203
0.0753031
0.0754034
0.0755039
0.0756046
0.0757055
0.0758066
0.0759079
0.0760095
0.0761112
0.0762131
0.0763153
0.0764176
0.0765201
0.0766228
0.0767252
0.0768284
0.0769319
0.0770355
0.0771394
0.0772434
0.0773477
0.0774522
0.0775569
0.0776618
0.0777669
0.0778723
0.0779778
0.0780836
0.0781896
0.0782958
0.0784022
0.0785088
0.0786157
0.0787227
0.07883
0.078937
0.0790447
0.0791526
0.0792607
0.079369
0.0794776
0.0795863
0.0796953
0.0798046
0.079914
0.0800237
0.0801336
0.0802437
0.080354
0.0804646
0.0805754
0.0806864
0.0807976
0.0809091
0.0810208
0.0811327
0.0812449
0.0813573
0.0814699
0.0815828
0.0816958
0.0818092
0.0819227
0.0820365
0.0821505
0.0822648
0.0823793
0.082494
0.082609
0.0827242
0.0828396
0.0829553
0.0830713
0.0831874
0.0833039
0.0834205
0.0835375
0.0836546
0.083772
0.0838891
0.0840069
0.0841249
0.0842432
0.0843618
0.0844806
0.0845997
0.084719
0.0848386
0.0849584
0.0850785
0.0851988
0.0853194
0.0854402
0.0855613
0.0856827
0.0858043
0.0859262
0.0860483
0.0861701
0.0862927
0.0864156
0.0865387
0.0866621
0.0867857
0.0869097
0.0870338
0.0871583
0.087283
0.0874079
0.0875332
0.0876587
0.0877845
0.0879105
0.0880368
0.0881634
0.0882903
0.0884174
0.0885448
0.0886725
0.0888004
0.0889287
0.0890572
0.089186
0.089315
0.0894444
0.089574
0.0897039
0.0898341
0.0899646
0.0900953
0.0902263
0.0903576
0.0904892
0.0906211
0.0907532
0.0908857
0.0910184
0.0911514
0.0912846
0.0914182
0.091552
0.0916862
0.0918206
0.0919553
0.0920902
0.0922255
0.092361
0.0924969
0.092633
0.0927694
0.092906
0.093043
0.0931802
0.0933178
0.0934556
0.0935937
0.0937321
0.0938708
0.0940098
0.094149
0.0942886
0.0944285
0.0945687
0.0947091
0.0948499
0.094991
0.0951324
0.0952742
0.0954162
0.0955586
0.0957014
0.0958444
0.0959879
0.0961317
0.0962759
0.0964205
0.0965655
0.096711
0.0968568
0.0970032
0.09715
0.0972973
0.0974452
0.0975936
0.0977426
0.0978922
0.0980425
0.0981935
0.0983452
0.0984977
0.0986511
0.0988054
0.0989606
0.0991168
0.0992742
0.0994327
0.0995924
0.0997535
0.0999161
0.10008
0.100246
0.100413
0.100583
0.100754
0.100928
0.101104
0.101282
0.101464
0.101648
0.101835
0.102026
0.10222
0.102418
0.10262
0.102826
0.103037
0.103253
0.103475
0.103702
0.103936
0.104175
0.104422
0.104677
0.104939
0.10521
0.105489
0.105779
0.106078
0.106388
0.10671
0.107044
0.107391
0.107752
0.108127
0.108518
0.108924
0.109349
0.109791
0.110253
0.110735
0.111238
0.111764
0.112314
0.112889
0.11349
0.114119
0.114777
0.115465
0.116185
0.116939
0.117729
0.118554
0.119418
0.120323
0.121269
0.122258
0.123293
0.124375
0.125506
0.126687
0.127922
0.12921
0.130555
0.131958
0.133421
0.134945
0.136533
0.138185
0.139904
0.14169
0.143544
0.145469
0.147465
0.149531
0.15167
0.153881
0.156163
0.158517
0.160941
0.163435
0.165995
0.16862
0.171308
0.174054
0.176853
0.179703
0.182595
0.185525
0.188484
0.191463
0.194454
0.197446
0.200427
0.203384
0.206302
0.209168
0.211964
0.214672
0.217274
0.219749
0.222076
0.224232
0.226194
0.227938
0.229439
0.230671
0.231608
0.232224
0.232494
0.232391
0.231892
0.230974
0.229614
0.227793
0.225495
0.222704
0.21941
0.215607
0.211291
0.206465
0.201137
0.195319
0.18903
0.182294
0.175141
0.167607
0.159734
0.151569
0.143165
0.134577
0.125865
0.117092
0.108324
0.0996236
0.0910571
0.082687
0.0745735
0.0667724
0.0593345
0.0523041
0.0457184
0.0396065
0.0340001
0.0289346
0.0243282
0.0202277
0.0166199
0.0134846
0.010795
0.00851937
0.0066219
0.0050641
0.00380609
0.0028079
0.00203061
0.0014374
0.000994339
0.000671004
0.000440861
0.0002814
0.000174083
0.000104102
6.00007e-05
3.32225e-05
1.76089e-05
8.89701e-06
4.26663e-06
1.9327e-06
8.21492e-07
3.25778e-07
1.19777e-07
4.00819e-08
1.24969e-08
3.15728e-09
9.51006e-10
2.37876e-10
-6.89058e-17
-9.96923e-14
-1.27163e-18
-1.25766e-19
-6.987e-21
0
0
)
;

boundaryField
{
    fixedWall
    {
        type            calculated;
        value           uniform 0;
    }
    outlet
    {
        type            calculated;
        value           uniform 0;
    }
    defaultFaces
    {
        type            empty;
    }
}


// ************************************************************************* //
