/*--------------------------------*- C++ -*----------------------------------*\
| =========                 |                                                 |
| \\      /  F ield         | OpenFOAM: The Open Source CFD Toolbox           |
|  \\    /   O peration     | Version:  2406                                  |
|   \\  /    A nd           | Website:  www.openfoam.com                      |
|    \\/     M anipulation  |                                                 |
\*---------------------------------------------------------------------------*/
FoamFile
{
    version     2.0;
    format      ascii;
    arch        "LSB;label=32;scalar=64";
    class       volScalarField;
    location    "13.1";
    object      T;
}
// * * * * * * * * * * * * * * * * * * * * * * * * * * * * * * * * * * * * * //

dimensions      [0 0 0 1 0 0 0];

internalField   nonuniform List<scalar> 
1000
(
304.18
324.979
344.391
362.619
379.817
396.11
411.597
426.361
440.469
453.98
466.944
479.404
491.397
502.955
514.109
524.884
535.302
545.384
555.15
564.615
573.796
582.706
591.357
599.763
607.933
615.877
623.605
631.125
638.446
645.575
652.518
659.283
665.875
672.3
678.565
684.672
690.629
696.439
702.106
707.635
713.03
718.294
723.432
728.446
733.34
738.116
742.779
747.331
751.774
756.111
760.346
764.48
768.516
772.455
776.302
780.056
783.722
787.3
790.793
794.202
797.53
800.779
803.949
807.043
810.063
813.009
815.885
818.69
821.428
824.098
826.703
829.244
831.723
834.141
836.498
838.797
841.039
843.224
845.355
847.431
849.456
851.428
853.351
855.224
857.049
858.827
860.559
862.245
863.888
865.488
867.045
868.561
870.037
871.473
872.871
874.231
875.554
876.842
878.094
879.312
880.496
881.647
882.766
883.854
884.912
885.939
886.938
887.908
888.85
889.765
890.653
891.516
892.354
893.167
893.956
894.721
895.464
896.185
896.884
897.561
898.219
898.856
899.473
900.072
900.652
901.214
901.759
902.286
902.797
903.291
903.77
904.233
904.682
905.115
905.535
905.941
906.334
906.714
907.081
907.436
907.779
908.11
908.43
908.74
909.039
909.327
909.606
909.875
910.134
910.385
910.626
910.859
911.084
911.301
911.51
911.712
911.906
912.093
912.273
912.447
912.614
912.775
912.93
913.079
913.223
913.361
913.494
913.622
913.745
913.863
913.977
914.086
914.191
914.292
914.388
914.481
914.571
914.656
914.738
914.817
914.893
914.966
915.035
915.102
915.166
915.227
915.286
915.342
915.396
915.448
915.498
915.545
915.59
915.634
915.675
915.715
915.753
915.789
915.824
915.857
915.889
915.919
915.948
915.975
916.002
916.027
916.051
916.074
916.095
916.116
916.136
916.155
916.173
916.19
916.206
916.222
916.236
916.251
916.264
916.277
916.289
916.3
916.311
916.321
916.331
916.34
916.349
916.358
916.366
916.373
916.38
916.387
916.393
916.399
916.405
916.411
916.416
916.421
916.425
916.429
916.434
916.437
916.441
916.444
916.448
916.451
916.454
916.456
916.459
916.461
916.463
916.465
916.467
916.469
916.471
916.473
916.474
916.476
916.477
916.478
916.479
916.48
916.481
916.482
916.483
916.484
916.485
916.486
916.486
916.487
916.487
916.488
916.488
916.489
916.489
916.49
916.49
916.49
916.491
916.491
916.491
916.492
916.492
916.492
916.492
916.492
916.493
916.493
916.493
916.493
916.493
916.493
916.493
916.494
916.494
916.494
916.494
916.494
916.494
916.494
916.494
916.494
916.494
916.495
916.495
916.495
916.495
916.495
916.495
916.495
916.495
916.495
916.495
916.496
916.496
916.496
916.496
916.496
916.496
916.496
916.496
916.496
916.497
916.497
916.497
916.497
916.497
916.497
916.497
916.498
916.498
916.498
916.498
916.498
916.498
916.498
916.499
916.499
916.499
916.499
916.499
916.499
916.5
916.5
916.5
916.5
916.5
916.501
916.501
916.501
916.501
916.501
916.501
916.502
916.502
916.502
916.502
916.502
916.503
916.503
916.503
916.503
916.503
916.503
916.504
916.504
916.504
916.504
916.504
916.505
916.505
916.505
916.505
916.505
916.505
916.506
916.506
916.506
916.506
916.506
916.506
916.507
916.507
916.507
916.507
916.507
916.507
916.507
916.508
916.508
916.508
916.508
916.508
916.508
916.508
916.509
916.509
916.509
916.509
916.509
916.509
916.509
916.51
916.51
916.51
916.51
916.51
916.51
916.51
916.51
916.51
916.511
916.511
916.511
916.511
916.511
916.511
916.511
916.511
916.511
916.511
916.511
916.512
916.512
916.512
916.512
916.512
916.512
916.512
916.512
916.512
916.512
916.512
916.512
916.512
916.513
916.513
916.513
916.513
916.513
916.513
916.513
916.513
916.513
916.513
916.513
916.513
916.513
916.513
916.513
916.513
916.513
916.514
916.514
916.514
916.514
916.514
916.514
916.514
916.514
916.514
916.514
916.514
916.514
916.514
916.514
916.514
916.514
916.514
916.514
916.514
916.514
916.514
916.514
916.514
916.514
916.514
916.514
916.515
916.515
916.515
916.515
916.515
916.515
916.515
916.515
916.515
916.515
916.515
916.515
916.515
916.515
916.515
916.515
916.515
916.515
916.515
916.515
916.515
916.515
916.515
916.515
916.515
916.515
916.515
916.515
916.515
916.515
916.515
916.515
916.515
916.515
916.515
916.515
916.515
916.515
916.516
916.516
916.516
916.516
916.516
916.516
916.516
916.516
916.516
916.516
916.516
916.516
916.516
916.516
916.516
916.516
916.516
916.516
916.516
916.516
916.516
916.516
916.516
916.516
916.516
916.516
916.516
916.516
916.516
916.516
916.516
916.516
916.516
916.516
916.516
916.516
916.516
916.516
916.516
916.517
916.517
916.517
916.517
916.517
916.517
916.517
916.517
916.517
916.517
916.517
916.517
916.517
916.517
916.517
916.517
916.517
916.517
916.517
916.517
916.517
916.517
916.517
916.517
916.517
916.517
916.517
916.517
916.517
916.517
916.517
916.517
916.517
916.517
916.518
916.518
916.518
916.518
916.518
916.518
916.518
916.518
916.518
916.518
916.518
916.518
916.518
916.518
916.518
916.518
916.518
916.518
916.518
916.518
916.518
916.518
916.518
916.518
916.518
916.518
916.518
916.518
916.518
916.518
916.518
916.518
916.518
916.518
916.518
916.518
916.518
916.518
916.518
916.518
916.518
916.518
916.518
916.518
916.518
916.518
916.518
916.518
916.518
916.518
916.518
916.518
916.518
916.518
916.518
916.518
916.518
916.518
916.518
916.518
916.518
916.518
916.518
916.518
916.518
916.518
916.518
916.518
916.518
916.518
916.518
916.518
916.518
916.518
916.518
916.518
916.518
916.518
916.518
916.518
916.518
916.518
916.518
916.518
916.518
916.518
916.518
916.518
916.518
916.518
916.518
916.518
916.518
916.518
916.518
916.518
916.518
916.518
916.518
916.518
916.519
916.519
916.519
916.519
916.519
916.519
916.519
916.519
916.519
916.519
916.519
916.519
916.519
916.519
916.519
916.519
916.519
916.519
916.519
916.519
916.519
916.519
916.519
916.519
916.519
916.519
916.519
916.519
916.519
916.519
916.519
916.519
916.519
916.519
916.519
916.519
916.519
916.519
916.519
916.518
916.518
916.518
916.518
916.518
916.518
916.518
916.518
916.517
916.517
916.517
916.517
916.516
916.516
916.516
916.515
916.515
916.515
916.514
916.514
916.513
916.513
916.512
916.512
916.511
916.51
916.509
916.508
916.508
916.507
916.506
916.504
916.503
916.502
916.5
916.499
916.497
916.496
916.494
916.492
916.49
916.488
916.485
916.483
916.48
916.477
916.474
916.47
916.467
916.463
916.459
916.454
916.45
916.445
916.439
916.434
916.428
916.421
916.414
916.407
916.399
916.391
916.382
916.373
916.363
916.352
916.341
916.329
916.316
916.302
916.288
916.273
916.256
916.239
916.221
916.202
916.181
916.159
916.136
916.112
916.086
916.059
916.03
915.999
915.967
915.933
915.897
915.859
915.819
915.776
915.732
915.684
915.635
915.582
915.527
915.469
915.407
915.343
915.275
915.203
915.128
915.049
914.966
914.879
914.787
914.691
914.59
914.485
914.374
914.257
914.135
914.007
913.874
913.733
913.587
913.433
913.273
913.105
912.93
912.746
912.555
912.355
912.147
911.929
911.702
911.466
911.219
910.962
910.694
910.415
910.125
909.823
909.509
909.182
908.843
908.49
908.123
907.742
907.347
906.937
906.511
906.069
905.611
905.137
904.645
904.135
903.607
903.061
902.496
901.91
901.305
900.679
900.032
899.364
898.673
897.959
897.222
896.461
895.676
894.866
894.03
893.168
892.279
891.363
890.419
889.446
888.445
887.413
886.351
885.257
884.132
882.974
881.783
880.558
879.298
878.002
876.671
875.302
873.895
872.45
870.966
869.441
867.874
866.266
864.614
862.919
861.178
859.391
857.557
855.675
853.744
851.762
849.728
847.642
845.501
843.304
841.051
838.739
836.368
833.934
831.438
828.878
826.25
823.555
820.789
817.952
815.04
812.052
808.986
805.839
802.609
799.293
795.889
792.394
788.805
785.12
781.335
777.447
773.452
769.348
765.131
760.796
756.341
751.76
747.051
742.207
737.226
732.101
726.829
721.403
715.819
710.09
704.228
698.138
691.868
685.412
678.763
671.915
664.861
657.595
650.111
642.401
634.459
626.279
617.855
609.18
600.248
591.055
581.594
571.861
561.854
551.568
541.001
530.154
519.027
507.621
495.941
483.993
471.786
459.33
446.64
433.732
420.627
407.35
393.929
380.398
366.794
353.162
339.55
326.015
312.62
299.433
)
;

boundaryField
{
    fixedWall
    {
        type            fixedValue;
        value           uniform 293;
    }
    outlet
    {
        type            inletOutlet;
        inletValue      uniform 293;
        value           uniform 293;
    }
    defaultFaces
    {
        type            empty;
    }
}


// ************************************************************************* //
