/*--------------------------------*- C++ -*----------------------------------*\
| =========                 |                                                 |
| \\      /  F ield         | OpenFOAM: The Open Source CFD Toolbox           |
|  \\    /   O peration     | Version:  2406                                  |
|   \\  /    A nd           | Website:  www.openfoam.com                      |
|    \\/     M anipulation  |                                                 |
\*---------------------------------------------------------------------------*/
FoamFile
{
    version     2.0;
    format      ascii;
    arch        "LSB;label=32;scalar=64";
    class       volScalarField;
    location    "9.3";
    object      Qdot;
}
// * * * * * * * * * * * * * * * * * * * * * * * * * * * * * * * * * * * * * //

dimensions      [1 -1 -3 0 0 0 0];

internalField   nonuniform List<scalar> 
1000
(
-1.3415e-18
-4.05246e-17
-5.93671e-16
3.80442e-09
1.90221e-08
6.95401e-08
2.77423e-07
8.86943e-07
2.45039e-06
6.01604e-06
1.34033e-05
2.75127e-05
5.26082e-05
9.466e-05
0.000161511
0.000263071
0.00041128
0.000620012
0.00090482
0.00128256
0.00177092
0.00238784
0.00315097
0.004077
0.00518108
0.00647628
0.00797308
0.00967898
0.0115982
0.0137315
0.0160762
0.0186258
0.0213707
0.024298
0.027392
0.0306343
0.0340046
0.0374809
0.0410398
0.0446575
0.0483096
0.051972
0.0556211
0.0592342
0.0627898
0.0662678
0.06965
0.0729197
0.0760626
0.0790661
0.0819198
0.0846152
0.087146
0.0895076
0.0916974
0.0937144
0.0955591
0.0972335
0.0987409
0.100085
0.101273
0.102308
0.103199
0.103953
0.104576
0.105078
0.105466
0.105748
0.105932
0.106027
0.106039
0.105978
0.10585
0.105662
0.105422
0.105135
0.104807
0.104445
0.104054
0.103639
0.103204
0.102754
0.102292
0.101823
0.101349
0.100873
0.100398
0.0999274
0.0994619
0.0990039
0.0985551
0.0981168
0.0976903
0.0972766
0.0968768
0.0964914
0.0961211
0.0957664
0.0954275
0.0951049
0.0947985
0.0945085
0.0942349
0.0939775
0.0937363
0.0935111
0.0933015
0.0931075
0.0929285
0.0927643
0.0926146
0.0924789
0.0923569
0.0922481
0.0921521
0.0920685
0.0919969
0.0919368
0.0918879
0.0918496
0.0918215
0.0918033
0.0917945
0.0917947
0.0918036
0.0918206
0.0918455
0.0918779
0.0919174
0.0919637
0.0920164
0.0920752
0.0921399
0.09221
0.0922854
0.0923657
0.0924507
0.0925401
0.0926336
0.0927311
0.0928324
0.0929371
0.0930452
0.0931563
0.0932704
0.0933873
0.0935067
0.0936281
0.0937518
0.0938781
0.0940065
0.0941369
0.094269
0.0944022
0.0945376
0.0946745
0.0948128
0.0949523
0.095093
0.0952349
0.0953779
0.0955219
0.0956668
0.0958126
0.0959593
0.0961067
0.0962549
0.0964038
0.0965534
0.0967036
0.0968543
0.0970057
0.0971576
0.09731
0.0974629
0.0976163
0.0977701
0.0979244
0.0980791
0.0982342
0.0983897
0.0985452
0.0987014
0.098858
0.0990149
0.0991722
0.0993298
0.0994877
0.099646
0.0998045
0.0999634
0.100123
0.100282
0.100442
0.100602
0.100762
0.100923
0.101084
0.101246
0.101407
0.101569
0.101732
0.101894
0.102057
0.10222
0.102384
0.102548
0.102712
0.102876
0.103041
0.103206
0.103372
0.103537
0.103703
0.10387
0.104037
0.104204
0.104371
0.104539
0.104707
0.104876
0.105044
0.105213
0.105383
0.105553
0.105722
0.105892
0.106063
0.106235
0.106406
0.106579
0.106751
0.106924
0.107097
0.10727
0.107444
0.107619
0.107793
0.107968
0.108144
0.108319
0.108495
0.108672
0.108849
0.109026
0.109204
0.109382
0.10956
0.109739
0.109918
0.110098
0.110278
0.110458
0.110639
0.11082
0.111001
0.111183
0.111366
0.111549
0.111732
0.111915
0.112099
0.112284
0.112469
0.112654
0.112839
0.113025
0.113212
0.113399
0.113586
0.113774
0.113962
0.114151
0.11434
0.114529
0.114719
0.114909
0.1151
0.115291
0.115483
0.115675
0.115868
0.116061
0.116254
0.116448
0.116642
0.116837
0.117032
0.117228
0.117424
0.11762
0.117817
0.118015
0.118213
0.118411
0.11861
0.118809
0.119009
0.11921
0.119409
0.119609
0.119811
0.120014
0.120216
0.120419
0.120623
0.120827
0.121032
0.121237
0.121443
0.121649
0.121855
0.122062
0.12227
0.122478
0.122687
0.122896
0.123105
0.123315
0.123526
0.123737
0.123949
0.124161
0.124374
0.124587
0.124801
0.125015
0.12523
0.125445
0.125661
0.125877
0.126094
0.126312
0.12653
0.126748
0.126968
0.127187
0.127408
0.127628
0.12785
0.128072
0.128294
0.128517
0.128741
0.128965
0.12919
0.129415
0.129641
0.129868
0.130095
0.130323
0.130551
0.13078
0.13101
0.13124
0.131471
0.131702
0.131934
0.132167
0.1324
0.132634
0.132868
0.133103
0.133339
0.133575
0.133812
0.13405
0.134288
0.134527
0.134766
0.135006
0.135247
0.135489
0.135731
0.135974
0.136217
0.136461
0.136706
0.136952
0.137198
0.137445
0.137692
0.13794
0.138189
0.138439
0.138689
0.13894
0.139191
0.139443
0.139696
0.13995
0.140205
0.14046
0.140715
0.140972
0.141229
0.141487
0.141746
0.142005
0.142265
0.142526
0.142787
0.14305
0.143312
0.143576
0.143841
0.144106
0.144372
0.144638
0.144906
0.145174
0.145442
0.145712
0.145982
0.146253
0.146525
0.146798
0.147071
0.147345
0.14762
0.147896
0.148172
0.148449
0.148727
0.149006
0.149285
0.149566
0.149847
0.150129
0.150411
0.150695
0.150979
0.151264
0.15155
0.151836
0.152123
0.152412
0.152701
0.15299
0.153281
0.153573
0.153865
0.154158
0.154452
0.154747
0.155042
0.155339
0.155636
0.155934
0.156233
0.156533
0.156833
0.157135
0.157437
0.157741
0.158045
0.15835
0.158656
0.158962
0.15927
0.159578
0.159888
0.160198
0.160509
0.160821
0.161134
0.161448
0.161763
0.162079
0.162396
0.162713
0.163032
0.163351
0.163672
0.163993
0.164315
0.164638
0.164963
0.165288
0.165614
0.165941
0.166269
0.166598
0.166928
0.167259
0.167591
0.167924
0.168258
0.168593
0.168929
0.169266
0.169604
0.169943
0.170283
0.170624
0.170966
0.171309
0.171653
0.171999
0.172345
0.172692
0.173041
0.17339
0.17374
0.174092
0.174445
0.174798
0.175153
0.175509
0.175866
0.176224
0.176583
0.176943
0.177305
0.177666
0.178028
0.178393
0.178759
0.179126
0.179494
0.179864
0.180234
0.180606
0.180979
0.181353
0.181728
0.182105
0.182482
0.182861
0.183241
0.183622
0.184004
0.184388
0.184772
0.185158
0.185545
0.185934
0.186323
0.186714
0.187106
0.187499
0.187894
0.188288
0.188683
0.189081
0.18948
0.189881
0.190283
0.190686
0.19109
0.191496
0.191903
0.192311
0.19272
0.193131
0.193543
0.193957
0.194372
0.194788
0.195205
0.195624
0.196044
0.196465
0.196888
0.197312
0.197737
0.198164
0.198592
0.199022
0.199453
0.199885
0.200319
0.200754
0.20119
0.201628
0.202067
0.202508
0.20295
0.203394
0.203839
0.204285
0.204733
0.205183
0.205634
0.206086
0.20654
0.206995
0.207452
0.20791
0.20837
0.208832
0.209294
0.209759
0.210225
0.210692
0.211161
0.211632
0.212104
0.212578
0.213053
0.21353
0.214009
0.214489
0.214971
0.215454
0.215939
0.216426
0.216915
0.217405
0.217896
0.21839
0.218885
0.219381
0.21988
0.22038
0.220882
0.221386
0.221891
0.222398
0.222907
0.223418
0.22393
0.224444
0.22496
0.225478
0.225996
0.226514
0.227037
0.227562
0.228089
0.228618
0.229149
0.229681
0.230215
0.230752
0.23129
0.23183
0.232371
0.232915
0.233461
0.234009
0.234558
0.23511
0.235664
0.236219
0.236777
0.237336
0.237898
0.238461
0.239027
0.239594
0.240164
0.240736
0.241309
0.241885
0.242463
0.243043
0.243625
0.244209
0.244796
0.245384
0.245975
0.246568
0.247162
0.247759
0.248359
0.24896
0.249564
0.250169
0.250777
0.251388
0.252
0.252615
0.253232
0.253851
0.254472
0.255096
0.255722
0.25635
0.256981
0.257614
0.258249
0.258887
0.259526
0.260169
0.260813
0.26146
0.262108
0.262755
0.263409
0.264066
0.264725
0.265386
0.266049
0.266715
0.267384
0.268055
0.268728
0.269404
0.270083
0.270763
0.271447
0.272133
0.272821
0.273512
0.274206
0.274902
0.275601
0.276302
0.277006
0.277713
0.278422
0.279134
0.279849
0.280566
0.281286
0.282009
0.282734
0.283462
0.284193
0.284927
0.285663
0.286403
0.287145
0.28789
0.288638
0.289389
0.290143
0.290899
0.291659
0.292422
0.293187
0.293956
0.294728
0.295502
0.29628
0.297061
0.297845
0.298632
0.299422
0.300216
0.301012
0.301812
0.302615
0.303422
0.304231
0.305044
0.30586
0.30668
0.307503
0.308329
0.309159
0.309992
0.310829
0.311664
0.312507
0.313353
0.314204
0.315058
0.315916
0.316777
0.317642
0.318511
0.319383
0.320259
0.321138
0.322022
0.322909
0.3238
0.324695
0.325593
0.326495
0.327401
0.328311
0.329225
0.330143
0.331064
0.33199
0.332919
0.333853
0.33479
0.335732
0.336677
0.337626
0.33858
0.339537
0.340499
0.341464
0.342434
0.343408
0.344386
0.345369
0.346355
0.347346
0.348341
0.34934
0.350344
0.351352
0.352364
0.353381
0.354401
0.35542
0.356449
0.357482
0.35852
0.359562
0.360608
0.361659
0.362715
0.363774
0.364839
0.365908
0.366981
0.368059
0.369142
0.370229
0.371321
0.372418
0.373519
0.374625
0.375736
0.376852
0.377972
0.379097
0.380227
0.381362
0.382502
0.383647
0.384797
0.385952
0.387112
0.388277
0.389446
0.390621
0.391802
0.392987
0.394177
0.395373
0.396574
0.39778
0.398992
0.400209
0.401431
0.402658
0.403891
0.40513
0.406374
0.407623
0.408878
0.410138
0.411405
0.412677
0.413954
0.415238
0.416527
0.417822
0.419123
0.420431
0.421745
0.423065
0.424391
0.425725
0.427065
0.428412
0.429767
0.431129
0.432499
0.433877
0.435264
0.43666
0.438066
0.439482
0.440909
0.442347
0.443798
0.445262
0.446741
0.448235
0.449745
0.451274
0.452823
0.454393
0.455987
0.457606
0.459253
0.460931
0.462642
0.46439
0.466178
0.46801
0.469891
0.471823
0.473814
0.475868
0.477991
0.480189
0.482469
0.484839
0.487307
0.489881
0.492571
0.495387
0.498339
0.501438
0.504698
0.50813
0.511749
0.515569
0.519604
0.523872
0.528388
0.533171
0.538237
0.543607
0.549299
0.555333
0.561729
0.568507
0.575688
0.583292
0.591338
0.599845
0.60883
0.618311
0.628302
0.638814
0.649856
0.661432
0.673545
0.686187
0.699349
0.71301
0.727145
0.741715
0.756672
0.771956
0.787492
0.803191
0.818945
0.834631
0.850104
0.865199
0.879733
0.893497
0.906263
0.917784
0.927791
0.935998
0.942108
0.945812
0.946799
0.94476
0.939399
0.930438
0.917634
0.900784
0.879742
0.854428
0.824843
0.791077
0.753318
0.711862
0.667111
0.619572
0.569854
0.518649
0.46672
0.414872
0.363928
0.314695
0.267929
0.224304
0.184378
0.148787
0.117693
0.0906651
0.0680627
0.0496656
0.0351259
0.0239993
0.015781
0.00994381
0.0059742
0.00340243
0.00182446
0.000913816
0.000423528
0.000179628
6.87944e-05
2.34136e-05
6.9455e-06
1.7539e-06
3.65646e-07
6.0754e-08
8.29774e-09
9.51006e-10
-8.30614e-17
-2.65506e-18
-4.1922e-20
0
)
;

boundaryField
{
    fixedWall
    {
        type            calculated;
        value           uniform 0;
    }
    outlet
    {
        type            calculated;
        value           uniform 0;
    }
    defaultFaces
    {
        type            empty;
    }
}


// ************************************************************************* //
