/*--------------------------------*- C++ -*----------------------------------*\
| =========                 |                                                 |
| \\      /  F ield         | OpenFOAM: The Open Source CFD Toolbox           |
|  \\    /   O peration     | Version:  2406                                  |
|   \\  /    A nd           | Website:  www.openfoam.com                      |
|    \\/     M anipulation  |                                                 |
\*---------------------------------------------------------------------------*/
FoamFile
{
    version     2.0;
    format      ascii;
    arch        "LSB;label=32;scalar=64";
    class       volScalarField;
    location    "9.3";
    object      T;
}
// * * * * * * * * * * * * * * * * * * * * * * * * * * * * * * * * * * * * * //

dimensions      [0 0 0 1 0 0 0];

internalField   nonuniform List<scalar> 
1000
(
306.367
330.907
353.551
374.613
394.326
412.87
430.386
446.988
462.77
477.811
492.177
505.924
519.102
531.752
543.913
555.615
566.889
577.761
588.253
598.387
608.181
617.653
626.818
635.691
644.285
652.612
660.683
668.51
676.1
683.465
690.611
697.548
704.282
710.82
717.169
723.336
729.326
735.144
740.797
746.288
751.624
756.808
761.845
766.74
771.496
776.117
780.607
784.969
789.208
793.326
797.326
801.212
804.987
808.653
812.214
815.673
819.031
822.291
825.456
828.529
831.512
834.407
837.216
839.942
842.586
845.152
847.64
850.052
852.392
854.66
856.859
858.99
861.055
863.056
864.994
866.871
868.69
870.45
872.154
873.803
875.4
876.944
878.438
879.883
881.28
882.631
883.937
885.199
886.419
887.597
888.734
889.833
890.894
891.918
892.906
893.86
894.78
895.667
896.522
897.347
898.142
898.907
899.645
900.356
901.04
901.699
902.333
902.943
903.53
904.095
904.638
905.16
905.661
906.143
906.606
907.051
907.478
907.888
908.282
908.66
909.022
909.369
909.702
910.021
910.327
910.62
910.901
911.17
911.427
911.674
911.909
912.135
912.35
912.556
912.753
912.942
913.121
913.293
913.457
913.614
913.763
913.905
914.041
914.171
914.294
914.412
914.524
914.631
914.732
914.828
914.92
915.008
915.091
915.17
915.246
915.317
915.385
915.45
915.511
915.569
915.624
915.677
915.726
915.773
915.818
915.86
915.9
915.938
915.973
916.007
916.039
916.069
916.098
916.125
916.15
916.174
916.197
916.218
916.238
916.257
916.275
916.291
916.307
916.322
916.336
916.349
916.361
916.373
916.383
916.393
916.403
916.412
916.42
916.428
916.435
916.441
916.448
916.453
916.459
916.464
916.468
916.473
916.477
916.48
916.484
916.487
916.49
916.492
916.495
916.497
916.499
916.501
916.502
916.504
916.505
916.506
916.507
916.508
916.509
916.509
916.51
916.51
916.511
916.511
916.511
916.511
916.512
916.512
916.512
916.511
916.511
916.511
916.511
916.511
916.51
916.51
916.51
916.509
916.509
916.509
916.508
916.508
916.507
916.507
916.506
916.506
916.505
916.505
916.504
916.504
916.503
916.503
916.502
916.502
916.501
916.501
916.5
916.5
916.499
916.499
916.498
916.498
916.497
916.497
916.496
916.496
916.495
916.495
916.495
916.494
916.494
916.493
916.493
916.493
916.492
916.492
916.492
916.491
916.491
916.491
916.491
916.49
916.49
916.49
916.49
916.49
916.489
916.489
916.489
916.489
916.489
916.489
916.489
916.488
916.488
916.488
916.488
916.488
916.488
916.488
916.488
916.488
916.488
916.488
916.488
916.488
916.488
916.488
916.489
916.489
916.489
916.489
916.489
916.489
916.489
916.49
916.49
916.49
916.49
916.49
916.49
916.491
916.491
916.491
916.491
916.492
916.492
916.492
916.492
916.493
916.493
916.493
916.493
916.494
916.494
916.494
916.495
916.495
916.495
916.495
916.496
916.496
916.496
916.497
916.497
916.497
916.498
916.498
916.498
916.499
916.499
916.499
916.5
916.5
916.5
916.5
916.501
916.501
916.501
916.502
916.502
916.502
916.503
916.503
916.503
916.503
916.504
916.504
916.504
916.505
916.505
916.505
916.505
916.506
916.506
916.506
916.506
916.506
916.507
916.507
916.507
916.507
916.508
916.508
916.508
916.508
916.508
916.509
916.509
916.509
916.509
916.509
916.509
916.509
916.51
916.51
916.51
916.51
916.51
916.51
916.51
916.51
916.511
916.511
916.511
916.511
916.511
916.511
916.511
916.511
916.511
916.511
916.511
916.511
916.512
916.512
916.512
916.512
916.512
916.512
916.512
916.512
916.512
916.512
916.512
916.512
916.512
916.512
916.512
916.512
916.512
916.512
916.512
916.512
916.512
916.512
916.513
916.513
916.513
916.513
916.513
916.513
916.513
916.513
916.513
916.513
916.513
916.513
916.513
916.513
916.513
916.513
916.513
916.513
916.513
916.513
916.513
916.513
916.513
916.513
916.513
916.513
916.513
916.514
916.514
916.514
916.514
916.514
916.514
916.514
916.514
916.514
916.514
916.514
916.514
916.514
916.514
916.514
916.514
916.514
916.514
916.514
916.514
916.514
916.514
916.514
916.514
916.515
916.515
916.515
916.515
916.515
916.515
916.515
916.515
916.515
916.515
916.515
916.515
916.515
916.515
916.515
916.515
916.515
916.515
916.515
916.515
916.515
916.515
916.515
916.515
916.515
916.515
916.515
916.515
916.515
916.515
916.515
916.515
916.515
916.515
916.515
916.515
916.515
916.515
916.515
916.515
916.515
916.515
916.515
916.515
916.515
916.515
916.515
916.515
916.515
916.515
916.515
916.515
916.515
916.515
916.515
916.515
916.515
916.515
916.515
916.515
916.515
916.515
916.515
916.515
916.515
916.515
916.515
916.515
916.515
916.515
916.515
916.515
916.515
916.515
916.515
916.515
916.515
916.515
916.515
916.515
916.515
916.516
916.516
916.516
916.516
916.516
916.516
916.516
916.516
916.516
916.516
916.516
916.516
916.516
916.516
916.516
916.516
916.517
916.517
916.517
916.517
916.517
916.517
916.517
916.517
916.517
916.517
916.517
916.517
916.517
916.517
916.518
916.518
916.518
916.518
916.518
916.518
916.518
916.518
916.518
916.518
916.518
916.518
916.518
916.518
916.518
916.518
916.518
916.519
916.519
916.519
916.519
916.519
916.519
916.519
916.519
916.519
916.519
916.519
916.519
916.519
916.519
916.519
916.519
916.519
916.519
916.519
916.519
916.519
916.519
916.518
916.518
916.518
916.518
916.518
916.518
916.518
916.518
916.518
916.518
916.518
916.518
916.518
916.518
916.518
916.518
916.517
916.517
916.517
916.517
916.517
916.517
916.517
916.517
916.517
916.517
916.517
916.517
916.516
916.516
916.516
916.516
916.516
916.516
916.516
916.516
916.516
916.516
916.516
916.516
916.516
916.516
916.516
916.515
916.515
916.515
916.515
916.515
916.515
916.515
916.515
916.515
916.515
916.515
916.515
916.515
916.515
916.515
916.516
916.516
916.516
916.516
916.516
916.516
916.516
916.516
916.516
916.516
916.516
916.516
916.517
916.517
916.517
916.517
916.517
916.517
916.517
916.518
916.518
916.518
916.518
916.518
916.518
916.519
916.519
916.519
916.519
916.519
916.52
916.52
916.52
916.52
916.52
916.52
916.521
916.521
916.521
916.521
916.521
916.521
916.522
916.522
916.522
916.522
916.522
916.522
916.522
916.522
916.523
916.523
916.523
916.523
916.523
916.523
916.523
916.523
916.523
916.523
916.523
916.523
916.523
916.523
916.523
916.523
916.523
916.523
916.523
916.522
916.522
916.522
916.522
916.522
916.522
916.522
916.521
916.521
916.521
916.521
916.521
916.52
916.52
916.52
916.52
916.519
916.519
916.519
916.519
916.518
916.518
916.518
916.518
916.517
916.517
916.517
916.516
916.516
916.516
916.516
916.515
916.515
916.515
916.514
916.514
916.514
916.514
916.513
916.513
916.513
916.512
916.512
916.512
916.512
916.511
916.511
916.511
916.51
916.51
916.51
916.51
916.509
916.509
916.509
916.508
916.508
916.508
916.507
916.507
916.506
916.506
916.505
916.505
916.504
916.504
916.503
916.502
916.501
916.5
916.499
916.498
916.497
916.496
916.494
916.493
916.491
916.489
916.487
916.484
916.481
916.479
916.475
916.472
916.468
916.463
916.458
916.453
916.447
916.44
916.433
916.425
916.417
916.407
916.397
916.385
916.372
916.359
916.344
916.327
916.309
916.289
916.268
916.244
916.218
916.191
916.16
916.127
916.091
916.052
916.009
915.963
915.913
915.859
915.8
915.736
915.667
915.593
915.513
915.426
915.332
915.231
915.123
915.006
914.88
914.745
914.599
914.444
914.276
914.097
913.905
913.699
913.479
913.244
912.993
912.726
912.44
912.135
911.811
911.466
911.099
910.709
910.294
909.854
909.388
908.894
908.37
907.816
907.23
906.611
905.957
905.266
904.538
903.77
902.961
902.11
901.214
900.272
899.282
898.243
897.152
896.007
894.807
893.55
892.233
890.855
889.414
887.906
886.331
884.685
882.967
881.174
879.302
877.351
875.317
873.197
870.988
868.687
866.292
863.799
861.205
858.505
855.697
852.776
849.738
846.579
843.295
839.88
836.329
832.637
828.799
824.807
820.657
816.34
811.849
807.177
802.315
797.255
791.987
786.501
780.785
774.83
768.621
762.147
755.394
748.345
740.986
733.299
725.266
716.952
708.279
699.1
689.495
679.442
668.914
657.887
646.335
634.23
621.544
608.25
594.321
579.731
564.455
548.471
531.762
514.315
496.124
477.192
457.533
437.173
416.155
394.542
372.419
349.897
327.122
304.279
)
;

boundaryField
{
    fixedWall
    {
        type            fixedValue;
        value           uniform 293;
    }
    outlet
    {
        type            inletOutlet;
        inletValue      uniform 293;
        value           uniform 293;
    }
    defaultFaces
    {
        type            empty;
    }
}


// ************************************************************************* //
