/*--------------------------------*- C++ -*----------------------------------*\
| =========                 |                                                 |
| \\      /  F ield         | OpenFOAM: The Open Source CFD Toolbox           |
|  \\    /   O peration     | Version:  2406                                  |
|   \\  /    A nd           | Website:  www.openfoam.com                      |
|    \\/     M anipulation  |                                                 |
\*---------------------------------------------------------------------------*/
FoamFile
{
    version     2.0;
    format      ascii;
    arch        "LSB;label=32;scalar=64";
    class       volScalarField;
    location    "1";
    object      CO2;
}
// * * * * * * * * * * * * * * * * * * * * * * * * * * * * * * * * * * * * * //

dimensions      [0 0 0 0 0 0 0];

internalField   nonuniform List<scalar> 
1000
(
0.0709257
0.0709257
0.0709257
0.0709257
0.0709257
0.0709257
0.0709256
0.0709256
0.0709256
0.0709256
0.0709256
0.0709256
0.0709255
0.0709255
0.0709255
0.0709255
0.0709255
0.0709255
0.0709255
0.0709255
0.0709255
0.0709255
0.0709255
0.0709255
0.0709254
0.0709254
0.0709254
0.0709254
0.0709254
0.0709254
0.0709254
0.0709253
0.0709253
0.0709253
0.0709253
0.0709252
0.0709252
0.0709252
0.0709252
0.0709251
0.0709251
0.0709251
0.0709251
0.070925
0.070925
0.070925
0.0709249
0.0709249
0.0709249
0.0709248
0.0709248
0.0709248
0.0709248
0.0709247
0.0709247
0.0709247
0.0709246
0.0709246
0.0709246
0.0709245
0.0709245
0.0709245
0.0709244
0.0709244
0.0709244
0.0709243
0.0709243
0.0709243
0.0709242
0.0709242
0.0709242
0.0709241
0.0709241
0.070924
0.070924
0.070924
0.0709239
0.0709239
0.0709238
0.0709238
0.0709237
0.0709237
0.0709236
0.0709236
0.0709235
0.0709235
0.0709234
0.0709234
0.0709233
0.0709232
0.0709232
0.0709231
0.070923
0.070923
0.0709229
0.0709228
0.0709227
0.0709226
0.0709225
0.0709224
0.0709224
0.0709222
0.0709221
0.070922
0.0709219
0.0709218
0.0709217
0.0709215
0.0709214
0.0709212
0.0709211
0.0709209
0.0709207
0.0709205
0.0709203
0.0709201
0.0709199
0.0709196
0.0709194
0.0709191
0.0709188
0.0709185
0.0709181
0.0709177
0.0709173
0.0709169
0.0709164
0.0709158
0.0709152
0.0709145
0.0709138
0.0709129
0.0709119
0.0709108
0.0709096
0.0709081
0.0709064
0.0709044
0.070902
0.0708991
0.0708955
0.0708909
0.0708849
0.0708768
0.0708654
0.0708486
0.0708228
0.0707812
0.0707093
0.0705682
0.0702213
0.0691185
0.0646371
0.0299247
0.0140574
0.00676078
0.00330008
0.0016245
0.000803346
0.000398218
0.000197628
9.81266e-05
4.87264e-05
2.41922e-05
1.20077e-05
5.9576e-06
2.95456e-06
1.46458e-06
7.25652e-07
3.59374e-07
1.77904e-07
8.80388e-08
4.35599e-08
2.15527e-08
1.06729e-08
5.29294e-09
2.63064e-09
1.32302e-09
6.69998e-10
3.45235e-10
2.04398e-10
1.4674e-10
9.8098e-11
6.70577e-11
5.64134e-11
4.96768e-11
4.61539e-11
4.3423e-11
4.23851e-11
4.14884e-11
4.10107e-11
4.0798e-11
4.06525e-11
4.05624e-11
4.05232e-11
4.04988e-11
4.04863e-11
4.04775e-11
4.04737e-11
4.04715e-11
4.04697e-11
4.04688e-11
4.04683e-11
4.04679e-11
4.04677e-11
4.04677e-11
4.04676e-11
4.04676e-11
4.04676e-11
4.04676e-11
4.04676e-11
4.04676e-11
4.04676e-11
4.04677e-11
4.04677e-11
4.04677e-11
4.04677e-11
4.04677e-11
4.04678e-11
4.04678e-11
4.04678e-11
4.04678e-11
4.04678e-11
4.04679e-11
4.04679e-11
4.04679e-11
4.04679e-11
4.04679e-11
4.0468e-11
4.0468e-11
4.0468e-11
4.0468e-11
4.0468e-11
4.04681e-11
4.04681e-11
4.04681e-11
4.04681e-11
4.04681e-11
4.04682e-11
4.04682e-11
4.04682e-11
4.04682e-11
4.04683e-11
4.04683e-11
4.04683e-11
4.04683e-11
4.04683e-11
4.04684e-11
4.04684e-11
4.04684e-11
4.04684e-11
4.04684e-11
4.04685e-11
4.04685e-11
4.04685e-11
4.04685e-11
4.04685e-11
4.04686e-11
4.04686e-11
4.04686e-11
4.04686e-11
4.04686e-11
4.04687e-11
4.04687e-11
4.04687e-11
4.04687e-11
4.04687e-11
4.04688e-11
4.04688e-11
4.04688e-11
4.04688e-11
4.04688e-11
4.04689e-11
4.04689e-11
4.04689e-11
4.04689e-11
4.04689e-11
4.04689e-11
4.0469e-11
4.0469e-11
4.0469e-11
4.0469e-11
4.0469e-11
4.04691e-11
4.04691e-11
4.04691e-11
4.04691e-11
4.04691e-11
4.04692e-11
4.04692e-11
4.04692e-11
4.04692e-11
4.04692e-11
4.04693e-11
4.04693e-11
4.04693e-11
4.04693e-11
4.04693e-11
4.04693e-11
4.04694e-11
4.04694e-11
4.04694e-11
4.04694e-11
4.04694e-11
4.04695e-11
4.04695e-11
4.04695e-11
4.04695e-11
4.04695e-11
4.04696e-11
4.04696e-11
4.04696e-11
4.04696e-11
4.04696e-11
4.04696e-11
4.04697e-11
4.04697e-11
4.04697e-11
4.04697e-11
4.04697e-11
4.04698e-11
4.04698e-11
4.04698e-11
4.04698e-11
4.04698e-11
4.04698e-11
4.04699e-11
4.04699e-11
4.04699e-11
4.04699e-11
4.04699e-11
4.047e-11
4.047e-11
4.047e-11
4.047e-11
4.047e-11
4.04701e-11
4.04701e-11
4.04701e-11
4.04701e-11
4.04701e-11
4.04701e-11
4.04702e-11
4.04702e-11
4.04702e-11
4.04702e-11
4.04702e-11
4.04703e-11
4.04703e-11
4.04703e-11
4.04703e-11
4.04703e-11
4.04704e-11
4.04704e-11
4.04704e-11
4.04704e-11
4.04704e-11
4.04704e-11
4.04705e-11
4.04705e-11
4.04705e-11
4.04705e-11
4.04705e-11
4.04706e-11
4.04706e-11
4.04706e-11
4.04706e-11
4.04706e-11
4.04707e-11
4.04707e-11
4.04707e-11
4.04707e-11
4.04707e-11
4.04708e-11
4.04708e-11
4.04708e-11
4.04708e-11
4.04708e-11
4.04709e-11
4.04709e-11
4.04709e-11
4.04709e-11
4.04709e-11
4.04709e-11
4.0471e-11
4.0471e-11
4.0471e-11
4.0471e-11
4.04711e-11
4.04711e-11
4.04711e-11
4.04711e-11
4.04711e-11
4.04712e-11
4.04712e-11
4.04712e-11
4.04712e-11
4.04712e-11
4.04713e-11
4.04713e-11
4.04713e-11
4.04713e-11
4.04713e-11
4.04714e-11
4.04714e-11
4.04714e-11
4.04714e-11
4.04715e-11
4.04715e-11
4.04715e-11
4.04715e-11
4.04715e-11
4.04716e-11
4.04716e-11
4.04716e-11
4.04716e-11
4.04717e-11
4.04717e-11
4.04717e-11
4.04717e-11
4.04717e-11
4.04718e-11
4.04718e-11
4.04718e-11
4.04718e-11
4.04719e-11
4.04719e-11
4.04719e-11
4.04719e-11
4.04719e-11
4.0472e-11
4.0472e-11
4.0472e-11
4.0472e-11
4.04721e-11
4.04721e-11
4.04721e-11
4.04721e-11
4.04722e-11
4.04722e-11
4.04722e-11
4.04722e-11
4.04723e-11
4.04723e-11
4.04723e-11
4.04723e-11
4.04723e-11
4.04724e-11
4.04724e-11
4.04724e-11
4.04724e-11
4.04725e-11
4.04725e-11
4.04725e-11
4.04725e-11
4.04726e-11
4.04726e-11
4.04726e-11
4.04726e-11
4.04727e-11
4.04727e-11
4.04727e-11
4.04727e-11
4.04728e-11
4.04728e-11
4.04728e-11
4.04728e-11
4.04729e-11
4.04729e-11
4.04729e-11
4.0473e-11
4.0473e-11
4.0473e-11
4.0473e-11
4.0473e-11
4.04731e-11
4.04731e-11
4.04731e-11
4.04731e-11
4.04732e-11
4.04732e-11
4.04732e-11
4.04733e-11
4.04733e-11
4.04733e-11
4.04733e-11
4.04734e-11
4.04734e-11
4.04734e-11
4.04734e-11
4.04735e-11
4.04735e-11
4.04735e-11
4.04735e-11
4.04736e-11
4.04736e-11
4.04736e-11
4.04737e-11
4.04737e-11
4.04737e-11
4.04737e-11
4.04738e-11
4.04738e-11
4.04738e-11
4.04738e-11
4.04739e-11
4.04739e-11
4.04739e-11
4.0474e-11
4.0474e-11
4.0474e-11
4.0474e-11
4.04741e-11
4.04741e-11
4.04741e-11
4.04742e-11
4.04742e-11
4.04742e-11
4.04742e-11
4.04743e-11
4.04743e-11
4.04743e-11
4.04743e-11
4.04744e-11
4.04744e-11
4.04744e-11
4.04745e-11
4.04745e-11
4.04745e-11
4.04745e-11
4.04746e-11
4.04746e-11
4.04746e-11
4.04747e-11
4.04747e-11
4.04747e-11
4.04747e-11
4.04748e-11
4.04748e-11
4.04748e-11
4.04749e-11
4.04749e-11
4.04749e-11
4.04749e-11
4.0475e-11
4.0475e-11
4.0475e-11
4.04751e-11
4.04751e-11
4.04751e-11
4.04751e-11
4.04752e-11
4.04752e-11
4.04752e-11
4.04753e-11
4.04753e-11
4.04753e-11
4.04754e-11
4.04754e-11
4.04754e-11
4.04754e-11
4.04755e-11
4.04755e-11
4.04755e-11
4.04756e-11
4.04756e-11
4.04756e-11
4.04756e-11
4.04757e-11
4.04757e-11
4.04757e-11
4.04758e-11
4.04758e-11
4.04758e-11
4.04759e-11
4.04759e-11
4.04759e-11
4.04759e-11
4.0476e-11
4.0476e-11
4.04761e-11
4.04761e-11
4.04761e-11
4.04761e-11
4.04762e-11
4.04762e-11
4.04762e-11
4.04763e-11
4.04763e-11
4.04763e-11
4.04763e-11
4.04764e-11
4.04764e-11
4.04764e-11
4.04765e-11
4.04765e-11
4.04765e-11
4.04766e-11
4.04766e-11
4.04766e-11
4.04766e-11
4.04767e-11
4.04767e-11
4.04768e-11
4.04768e-11
4.04768e-11
4.04768e-11
4.04769e-11
4.04769e-11
4.04769e-11
4.0477e-11
4.0477e-11
4.0477e-11
4.04771e-11
4.04771e-11
4.04771e-11
4.04772e-11
4.04772e-11
4.04772e-11
4.04772e-11
4.04773e-11
4.04773e-11
4.04773e-11
4.04774e-11
4.04774e-11
4.04774e-11
4.04775e-11
4.04775e-11
4.04775e-11
4.04776e-11
4.04776e-11
4.04776e-11
4.04777e-11
4.04777e-11
4.04777e-11
4.04777e-11
4.04778e-11
4.04778e-11
4.04779e-11
4.04779e-11
4.04779e-11
4.04779e-11
4.0478e-11
4.0478e-11
4.0478e-11
4.04781e-11
4.04781e-11
4.04781e-11
4.04782e-11
4.04782e-11
4.04782e-11
4.04783e-11
4.04783e-11
4.04783e-11
4.04783e-11
4.04784e-11
4.04784e-11
4.04785e-11
4.04785e-11
4.04785e-11
4.04786e-11
4.04786e-11
4.04786e-11
4.04787e-11
4.04787e-11
4.04787e-11
4.04788e-11
4.04788e-11
4.04788e-11
4.04788e-11
4.04789e-11
4.04789e-11
4.04789e-11
4.0479e-11
4.0479e-11
4.0479e-11
4.04791e-11
4.04791e-11
4.04791e-11
4.04792e-11
4.04792e-11
4.04793e-11
4.04793e-11
4.04793e-11
4.04793e-11
4.04794e-11
4.04794e-11
4.04794e-11
4.04795e-11
4.04795e-11
4.04796e-11
4.04796e-11
4.04796e-11
4.04796e-11
4.04797e-11
4.04797e-11
4.04798e-11
4.04798e-11
4.04798e-11
4.04799e-11
4.04799e-11
4.04799e-11
4.04799e-11
4.048e-11
4.048e-11
4.048e-11
4.04801e-11
4.04801e-11
4.04801e-11
4.04802e-11
4.04802e-11
4.04802e-11
4.04803e-11
4.04803e-11
4.04803e-11
4.04804e-11
4.04804e-11
4.04805e-11
4.04805e-11
4.04805e-11
4.04806e-11
4.04806e-11
4.04806e-11
4.04807e-11
4.04807e-11
4.04807e-11
4.04808e-11
4.04808e-11
4.04808e-11
4.04809e-11
4.04809e-11
4.04809e-11
4.0481e-11
4.0481e-11
4.0481e-11
4.04811e-11
4.04811e-11
4.04811e-11
4.04812e-11
4.04812e-11
4.04813e-11
4.04813e-11
4.04813e-11
4.04814e-11
4.04814e-11
4.04814e-11
4.04815e-11
4.04815e-11
4.04815e-11
4.04816e-11
4.04816e-11
4.04816e-11
4.04817e-11
4.04817e-11
4.04818e-11
4.04818e-11
4.04818e-11
4.04819e-11
4.04819e-11
4.04819e-11
4.0482e-11
4.0482e-11
4.0482e-11
4.04821e-11
4.04821e-11
4.04821e-11
4.04822e-11
4.04822e-11
4.04823e-11
4.04823e-11
4.04823e-11
4.04824e-11
4.04824e-11
4.04824e-11
4.04825e-11
4.04825e-11
4.04825e-11
4.04826e-11
4.04826e-11
4.04827e-11
4.04827e-11
4.04827e-11
4.04828e-11
4.04828e-11
4.04828e-11
4.04829e-11
4.04829e-11
4.04829e-11
4.0483e-11
4.0483e-11
4.04831e-11
4.04831e-11
4.04831e-11
4.04832e-11
4.04832e-11
4.04832e-11
4.04833e-11
4.04833e-11
4.04834e-11
4.04834e-11
4.04834e-11
4.04835e-11
4.04835e-11
4.04835e-11
4.04836e-11
4.04836e-11
4.04837e-11
4.04837e-11
4.04837e-11
4.04838e-11
4.04838e-11
4.04838e-11
4.04839e-11
4.04839e-11
4.0484e-11
4.0484e-11
4.0484e-11
4.04841e-11
4.04841e-11
4.04842e-11
4.04842e-11
4.04842e-11
4.04843e-11
4.04843e-11
4.04843e-11
4.04844e-11
4.04844e-11
4.04845e-11
4.04845e-11
4.04845e-11
4.04846e-11
4.04846e-11
4.04847e-11
4.04847e-11
4.04847e-11
4.04848e-11
4.04848e-11
4.04849e-11
4.04849e-11
4.04849e-11
4.0485e-11
4.0485e-11
4.0485e-11
4.04851e-11
4.04851e-11
4.04852e-11
4.04852e-11
4.04852e-11
4.04853e-11
4.04853e-11
4.04854e-11
4.04854e-11
4.04854e-11
4.04855e-11
4.04855e-11
4.04856e-11
4.04856e-11
4.04856e-11
4.04857e-11
4.04857e-11
4.04858e-11
4.04858e-11
4.04859e-11
4.04859e-11
4.04859e-11
4.0486e-11
4.0486e-11
4.04861e-11
4.04861e-11
4.04861e-11
4.04862e-11
4.04862e-11
4.04862e-11
4.04863e-11
4.04863e-11
4.04864e-11
4.04864e-11
4.04865e-11
4.04865e-11
4.04865e-11
4.04866e-11
4.04866e-11
4.04867e-11
4.04867e-11
4.04867e-11
4.04868e-11
4.04868e-11
4.04869e-11
4.04869e-11
4.04869e-11
4.0487e-11
4.0487e-11
4.04871e-11
4.04871e-11
4.04872e-11
4.04872e-11
4.04872e-11
4.04873e-11
4.04873e-11
4.04874e-11
4.04874e-11
4.04874e-11
4.04875e-11
4.04875e-11
4.04876e-11
4.04876e-11
4.04877e-11
4.04877e-11
4.04877e-11
4.04878e-11
4.04878e-11
4.04879e-11
4.04879e-11
4.0488e-11
4.0488e-11
4.0488e-11
4.04881e-11
4.04881e-11
4.04882e-11
4.04882e-11
4.04882e-11
4.04883e-11
4.04883e-11
4.04884e-11
4.04884e-11
4.04885e-11
4.04885e-11
4.04886e-11
4.04886e-11
4.04886e-11
4.04887e-11
4.04887e-11
4.04888e-11
4.04888e-11
4.04888e-11
4.04889e-11
4.04889e-11
4.0489e-11
4.0489e-11
4.04891e-11
4.04891e-11
4.04892e-11
4.04892e-11
4.04892e-11
4.04893e-11
4.04893e-11
4.04894e-11
4.04894e-11
4.04895e-11
4.04895e-11
4.04895e-11
4.04896e-11
4.04896e-11
4.04897e-11
4.04897e-11
4.04898e-11
4.04898e-11
4.04898e-11
4.04899e-11
4.04899e-11
4.049e-11
4.049e-11
4.04901e-11
4.04901e-11
4.04902e-11
4.04902e-11
4.04902e-11
4.04903e-11
4.04903e-11
4.04904e-11
4.04904e-11
4.04905e-11
4.04905e-11
4.04906e-11
4.04906e-11
4.04907e-11
4.04907e-11
4.04907e-11
4.04908e-11
4.04908e-11
4.04909e-11
4.04909e-11
4.0491e-11
4.0491e-11
4.0491e-11
4.04911e-11
4.04911e-11
4.04912e-11
4.04912e-11
4.04913e-11
4.04913e-11
4.04913e-11
4.04914e-11
4.04914e-11
4.04915e-11
4.04915e-11
4.04916e-11
4.04916e-11
4.04917e-11
4.04917e-11
)
;

boundaryField
{
    fixedWall
    {
        type            zeroGradient;
    }
    outlet
    {
        type            inletOutlet;
        inletValue      uniform 0;
        value           uniform 4.04917e-11;
    }
    defaultFaces
    {
        type            empty;
    }
}


// ************************************************************************* //
