/*--------------------------------*- C++ -*----------------------------------*\
| =========                 |                                                 |
| \\      /  F ield         | OpenFOAM: The Open Source CFD Toolbox           |
|  \\    /   O peration     | Version:  2406                                  |
|   \\  /    A nd           | Website:  www.openfoam.com                      |
|    \\/     M anipulation  |                                                 |
\*---------------------------------------------------------------------------*/
FoamFile
{
    version     2.0;
    format      ascii;
    arch        "LSB;label=32;scalar=64";
    class       volScalarField;
    location    "1";
    object      H2O;
}
// * * * * * * * * * * * * * * * * * * * * * * * * * * * * * * * * * * * * * //

dimensions      [0 0 0 0 0 0 0];

internalField   nonuniform List<scalar> 
1000
(
0.0580663
0.0580663
0.0580663
0.0580662
0.0580662
0.0580662
0.0580662
0.0580662
0.0580662
0.0580661
0.0580661
0.0580661
0.0580661
0.0580661
0.0580661
0.0580661
0.0580661
0.0580661
0.0580661
0.0580661
0.0580661
0.0580661
0.0580661
0.0580661
0.058066
0.058066
0.058066
0.058066
0.058066
0.058066
0.058066
0.0580659
0.0580659
0.0580659
0.0580659
0.0580659
0.0580659
0.0580658
0.0580658
0.0580658
0.0580658
0.0580657
0.0580657
0.0580657
0.0580657
0.0580656
0.0580656
0.0580656
0.0580656
0.0580655
0.0580655
0.0580655
0.0580655
0.0580655
0.0580654
0.0580654
0.0580654
0.0580654
0.0580653
0.0580653
0.0580653
0.0580652
0.0580652
0.0580652
0.0580652
0.0580651
0.0580651
0.0580651
0.0580651
0.058065
0.058065
0.058065
0.0580649
0.0580649
0.0580649
0.0580648
0.0580648
0.0580648
0.0580647
0.0580647
0.0580646
0.0580646
0.0580646
0.0580645
0.0580645
0.0580644
0.0580644
0.0580643
0.0580643
0.0580642
0.0580642
0.0580641
0.0580641
0.058064
0.0580639
0.0580639
0.0580638
0.0580637
0.0580637
0.0580636
0.0580635
0.0580634
0.0580633
0.0580632
0.0580631
0.058063
0.0580629
0.0580628
0.0580627
0.0580626
0.0580624
0.0580623
0.0580622
0.058062
0.0580618
0.0580617
0.0580615
0.0580613
0.0580611
0.0580608
0.0580606
0.0580603
0.05806
0.0580597
0.0580594
0.058059
0.0580586
0.0580582
0.0580577
0.0580571
0.0580565
0.0580558
0.058055
0.0580541
0.058053
0.0580519
0.0580505
0.0580488
0.0580468
0.0580445
0.0580415
0.0580378
0.0580329
0.0580262
0.0580169
0.0580031
0.057982
0.0579479
0.0578891
0.0577736
0.0574896
0.0565867
0.0529178
0.0244991
0.0115087
0.00553499
0.00270174
0.00132996
0.000657692
0.000326018
0.000161796
8.03354e-05
3.98919e-05
1.9806e-05
9.83056e-06
4.87744e-06
2.41887e-06
1.19904e-06
5.94085e-07
2.94217e-07
1.45649e-07
7.20766e-08
3.56621e-08
1.7645e-08
8.73781e-09
4.33328e-09
2.15368e-09
1.08315e-09
5.48522e-10
2.82641e-10
1.67339e-10
1.20135e-10
8.0312e-11
5.48996e-11
4.61851e-11
4.067e-11
3.77858e-11
3.555e-11
3.47003e-11
3.39662e-11
3.35751e-11
3.3401e-11
3.32818e-11
3.32081e-11
3.3176e-11
3.3156e-11
3.31458e-11
3.31386e-11
3.31355e-11
3.31337e-11
3.31322e-11
3.31315e-11
3.3131e-11
3.31307e-11
3.31306e-11
3.31305e-11
3.31305e-11
3.31305e-11
3.31305e-11
3.31305e-11
3.31305e-11
3.31305e-11
3.31305e-11
3.31305e-11
3.31305e-11
3.31305e-11
3.31306e-11
3.31306e-11
3.31306e-11
3.31306e-11
3.31306e-11
3.31306e-11
3.31307e-11
3.31307e-11
3.31307e-11
3.31307e-11
3.31307e-11
3.31307e-11
3.31308e-11
3.31308e-11
3.31308e-11
3.31308e-11
3.31308e-11
3.31308e-11
3.31309e-11
3.31309e-11
3.31309e-11
3.31309e-11
3.31309e-11
3.3131e-11
3.3131e-11
3.3131e-11
3.3131e-11
3.3131e-11
3.3131e-11
3.31311e-11
3.31311e-11
3.31311e-11
3.31311e-11
3.31311e-11
3.31311e-11
3.31311e-11
3.31312e-11
3.31312e-11
3.31312e-11
3.31312e-11
3.31312e-11
3.31313e-11
3.31313e-11
3.31313e-11
3.31313e-11
3.31313e-11
3.31313e-11
3.31313e-11
3.31314e-11
3.31314e-11
3.31314e-11
3.31314e-11
3.31314e-11
3.31314e-11
3.31315e-11
3.31315e-11
3.31315e-11
3.31315e-11
3.31315e-11
3.31315e-11
3.31316e-11
3.31316e-11
3.31316e-11
3.31316e-11
3.31316e-11
3.31316e-11
3.31317e-11
3.31317e-11
3.31317e-11
3.31317e-11
3.31317e-11
3.31317e-11
3.31317e-11
3.31318e-11
3.31318e-11
3.31318e-11
3.31318e-11
3.31318e-11
3.31318e-11
3.31319e-11
3.31319e-11
3.31319e-11
3.31319e-11
3.31319e-11
3.31319e-11
3.31319e-11
3.3132e-11
3.3132e-11
3.3132e-11
3.3132e-11
3.3132e-11
3.3132e-11
3.31321e-11
3.31321e-11
3.31321e-11
3.31321e-11
3.31321e-11
3.31321e-11
3.31321e-11
3.31322e-11
3.31322e-11
3.31322e-11
3.31322e-11
3.31322e-11
3.31322e-11
3.31323e-11
3.31323e-11
3.31323e-11
3.31323e-11
3.31323e-11
3.31323e-11
3.31323e-11
3.31324e-11
3.31324e-11
3.31324e-11
3.31324e-11
3.31324e-11
3.31324e-11
3.31324e-11
3.31325e-11
3.31325e-11
3.31325e-11
3.31325e-11
3.31325e-11
3.31325e-11
3.31325e-11
3.31326e-11
3.31326e-11
3.31326e-11
3.31326e-11
3.31326e-11
3.31326e-11
3.31327e-11
3.31327e-11
3.31327e-11
3.31327e-11
3.31327e-11
3.31327e-11
3.31328e-11
3.31328e-11
3.31328e-11
3.31328e-11
3.31328e-11
3.31328e-11
3.31328e-11
3.31329e-11
3.31329e-11
3.31329e-11
3.31329e-11
3.31329e-11
3.31329e-11
3.31329e-11
3.3133e-11
3.3133e-11
3.3133e-11
3.3133e-11
3.3133e-11
3.31331e-11
3.31331e-11
3.31331e-11
3.31331e-11
3.31331e-11
3.31331e-11
3.31331e-11
3.31332e-11
3.31332e-11
3.31332e-11
3.31332e-11
3.31332e-11
3.31332e-11
3.31333e-11
3.31333e-11
3.31333e-11
3.31333e-11
3.31333e-11
3.31333e-11
3.31334e-11
3.31334e-11
3.31334e-11
3.31334e-11
3.31334e-11
3.31334e-11
3.31335e-11
3.31335e-11
3.31335e-11
3.31335e-11
3.31335e-11
3.31335e-11
3.31336e-11
3.31336e-11
3.31336e-11
3.31336e-11
3.31336e-11
3.31337e-11
3.31337e-11
3.31337e-11
3.31337e-11
3.31337e-11
3.31338e-11
3.31338e-11
3.31338e-11
3.31338e-11
3.31338e-11
3.31338e-11
3.31339e-11
3.31339e-11
3.31339e-11
3.31339e-11
3.31339e-11
3.31339e-11
3.3134e-11
3.3134e-11
3.3134e-11
3.3134e-11
3.3134e-11
3.31341e-11
3.31341e-11
3.31341e-11
3.31341e-11
3.31341e-11
3.31342e-11
3.31342e-11
3.31342e-11
3.31342e-11
3.31342e-11
3.31343e-11
3.31343e-11
3.31343e-11
3.31343e-11
3.31343e-11
3.31344e-11
3.31344e-11
3.31344e-11
3.31344e-11
3.31344e-11
3.31345e-11
3.31345e-11
3.31345e-11
3.31345e-11
3.31345e-11
3.31346e-11
3.31346e-11
3.31346e-11
3.31346e-11
3.31346e-11
3.31347e-11
3.31347e-11
3.31347e-11
3.31347e-11
3.31347e-11
3.31348e-11
3.31348e-11
3.31348e-11
3.31348e-11
3.31348e-11
3.31349e-11
3.31349e-11
3.31349e-11
3.31349e-11
3.31349e-11
3.3135e-11
3.3135e-11
3.3135e-11
3.3135e-11
3.31351e-11
3.31351e-11
3.31351e-11
3.31351e-11
3.31351e-11
3.31352e-11
3.31352e-11
3.31352e-11
3.31352e-11
3.31353e-11
3.31353e-11
3.31353e-11
3.31353e-11
3.31353e-11
3.31354e-11
3.31354e-11
3.31354e-11
3.31354e-11
3.31354e-11
3.31355e-11
3.31355e-11
3.31355e-11
3.31355e-11
3.31356e-11
3.31356e-11
3.31356e-11
3.31356e-11
3.31356e-11
3.31357e-11
3.31357e-11
3.31357e-11
3.31357e-11
3.31358e-11
3.31358e-11
3.31358e-11
3.31358e-11
3.31359e-11
3.31359e-11
3.31359e-11
3.31359e-11
3.31359e-11
3.3136e-11
3.3136e-11
3.3136e-11
3.3136e-11
3.31361e-11
3.31361e-11
3.31361e-11
3.31361e-11
3.31362e-11
3.31362e-11
3.31362e-11
3.31362e-11
3.31362e-11
3.31363e-11
3.31363e-11
3.31363e-11
3.31363e-11
3.31364e-11
3.31364e-11
3.31364e-11
3.31364e-11
3.31365e-11
3.31365e-11
3.31365e-11
3.31365e-11
3.31366e-11
3.31366e-11
3.31366e-11
3.31366e-11
3.31366e-11
3.31367e-11
3.31367e-11
3.31367e-11
3.31367e-11
3.31368e-11
3.31368e-11
3.31368e-11
3.31368e-11
3.31369e-11
3.31369e-11
3.31369e-11
3.31369e-11
3.3137e-11
3.3137e-11
3.3137e-11
3.3137e-11
3.31371e-11
3.31371e-11
3.31371e-11
3.31371e-11
3.31372e-11
3.31372e-11
3.31372e-11
3.31372e-11
3.31373e-11
3.31373e-11
3.31373e-11
3.31373e-11
3.31374e-11
3.31374e-11
3.31374e-11
3.31374e-11
3.31375e-11
3.31375e-11
3.31375e-11
3.31375e-11
3.31376e-11
3.31376e-11
3.31376e-11
3.31376e-11
3.31377e-11
3.31377e-11
3.31377e-11
3.31377e-11
3.31378e-11
3.31378e-11
3.31378e-11
3.31378e-11
3.31379e-11
3.31379e-11
3.31379e-11
3.31379e-11
3.3138e-11
3.3138e-11
3.3138e-11
3.3138e-11
3.31381e-11
3.31381e-11
3.31381e-11
3.31381e-11
3.31382e-11
3.31382e-11
3.31382e-11
3.31382e-11
3.31383e-11
3.31383e-11
3.31383e-11
3.31383e-11
3.31384e-11
3.31384e-11
3.31384e-11
3.31384e-11
3.31385e-11
3.31385e-11
3.31385e-11
3.31385e-11
3.31386e-11
3.31386e-11
3.31386e-11
3.31386e-11
3.31387e-11
3.31387e-11
3.31387e-11
3.31387e-11
3.31388e-11
3.31388e-11
3.31388e-11
3.31389e-11
3.31389e-11
3.31389e-11
3.31389e-11
3.3139e-11
3.3139e-11
3.3139e-11
3.3139e-11
3.31391e-11
3.31391e-11
3.31391e-11
3.31391e-11
3.31392e-11
3.31392e-11
3.31392e-11
3.31392e-11
3.31393e-11
3.31393e-11
3.31393e-11
3.31394e-11
3.31394e-11
3.31394e-11
3.31394e-11
3.31395e-11
3.31395e-11
3.31395e-11
3.31396e-11
3.31396e-11
3.31396e-11
3.31396e-11
3.31397e-11
3.31397e-11
3.31397e-11
3.31397e-11
3.31398e-11
3.31398e-11
3.31398e-11
3.31398e-11
3.31399e-11
3.31399e-11
3.31399e-11
3.314e-11
3.314e-11
3.314e-11
3.314e-11
3.31401e-11
3.31401e-11
3.31401e-11
3.31401e-11
3.31402e-11
3.31402e-11
3.31402e-11
3.31403e-11
3.31403e-11
3.31403e-11
3.31403e-11
3.31404e-11
3.31404e-11
3.31404e-11
3.31404e-11
3.31405e-11
3.31405e-11
3.31405e-11
3.31405e-11
3.31406e-11
3.31406e-11
3.31406e-11
3.31407e-11
3.31407e-11
3.31407e-11
3.31407e-11
3.31408e-11
3.31408e-11
3.31408e-11
3.31408e-11
3.31409e-11
3.31409e-11
3.31409e-11
3.3141e-11
3.3141e-11
3.3141e-11
3.31411e-11
3.31411e-11
3.31411e-11
3.31411e-11
3.31412e-11
3.31412e-11
3.31412e-11
3.31412e-11
3.31413e-11
3.31413e-11
3.31413e-11
3.31414e-11
3.31414e-11
3.31414e-11
3.31414e-11
3.31415e-11
3.31415e-11
3.31415e-11
3.31416e-11
3.31416e-11
3.31416e-11
3.31417e-11
3.31417e-11
3.31417e-11
3.31417e-11
3.31418e-11
3.31418e-11
3.31418e-11
3.31419e-11
3.31419e-11
3.31419e-11
3.31419e-11
3.3142e-11
3.3142e-11
3.3142e-11
3.31421e-11
3.31421e-11
3.31421e-11
3.31421e-11
3.31422e-11
3.31422e-11
3.31422e-11
3.31423e-11
3.31423e-11
3.31423e-11
3.31423e-11
3.31424e-11
3.31424e-11
3.31424e-11
3.31425e-11
3.31425e-11
3.31425e-11
3.31426e-11
3.31426e-11
3.31426e-11
3.31426e-11
3.31427e-11
3.31427e-11
3.31427e-11
3.31428e-11
3.31428e-11
3.31428e-11
3.31429e-11
3.31429e-11
3.31429e-11
3.31429e-11
3.3143e-11
3.3143e-11
3.3143e-11
3.31431e-11
3.31431e-11
3.31431e-11
3.31432e-11
3.31432e-11
3.31432e-11
3.31433e-11
3.31433e-11
3.31433e-11
3.31433e-11
3.31434e-11
3.31434e-11
3.31434e-11
3.31435e-11
3.31435e-11
3.31435e-11
3.31436e-11
3.31436e-11
3.31436e-11
3.31436e-11
3.31437e-11
3.31437e-11
3.31437e-11
3.31438e-11
3.31438e-11
3.31438e-11
3.31439e-11
3.31439e-11
3.31439e-11
3.3144e-11
3.3144e-11
3.3144e-11
3.31441e-11
3.31441e-11
3.31441e-11
3.31442e-11
3.31442e-11
3.31442e-11
3.31442e-11
3.31443e-11
3.31443e-11
3.31443e-11
3.31444e-11
3.31444e-11
3.31444e-11
3.31445e-11
3.31445e-11
3.31445e-11
3.31446e-11
3.31446e-11
3.31446e-11
3.31447e-11
3.31447e-11
3.31447e-11
3.31448e-11
3.31448e-11
3.31448e-11
3.31449e-11
3.31449e-11
3.31449e-11
3.31449e-11
3.3145e-11
3.3145e-11
3.3145e-11
3.31451e-11
3.31451e-11
3.31451e-11
3.31452e-11
3.31452e-11
3.31452e-11
3.31453e-11
3.31453e-11
3.31453e-11
3.31454e-11
3.31454e-11
3.31454e-11
3.31455e-11
3.31455e-11
3.31455e-11
3.31456e-11
3.31456e-11
3.31456e-11
3.31457e-11
3.31457e-11
3.31457e-11
3.31458e-11
3.31458e-11
3.31458e-11
3.31459e-11
3.31459e-11
3.31459e-11
3.3146e-11
3.3146e-11
3.3146e-11
3.31461e-11
3.31461e-11
3.31461e-11
3.31462e-11
3.31462e-11
3.31462e-11
3.31463e-11
3.31463e-11
3.31463e-11
3.31464e-11
3.31464e-11
3.31464e-11
3.31465e-11
3.31465e-11
3.31465e-11
3.31466e-11
3.31466e-11
3.31466e-11
3.31467e-11
3.31467e-11
3.31468e-11
3.31468e-11
3.31468e-11
3.31469e-11
3.31469e-11
3.31469e-11
3.3147e-11
3.3147e-11
3.3147e-11
3.31471e-11
3.31471e-11
3.31471e-11
3.31472e-11
3.31472e-11
3.31472e-11
3.31473e-11
3.31473e-11
3.31473e-11
3.31474e-11
3.31474e-11
3.31474e-11
3.31475e-11
3.31475e-11
3.31475e-11
3.31476e-11
3.31476e-11
3.31477e-11
3.31477e-11
3.31477e-11
3.31478e-11
3.31478e-11
3.31478e-11
3.31479e-11
3.31479e-11
3.31479e-11
3.3148e-11
3.3148e-11
3.3148e-11
3.31481e-11
3.31481e-11
3.31482e-11
3.31482e-11
3.31482e-11
3.31483e-11
3.31483e-11
3.31483e-11
3.31484e-11
3.31484e-11
3.31484e-11
3.31485e-11
3.31485e-11
3.31485e-11
3.31486e-11
3.31486e-11
3.31486e-11
3.31487e-11
3.31487e-11
3.31488e-11
3.31488e-11
3.31488e-11
3.31489e-11
3.31489e-11
3.31489e-11
3.3149e-11
3.3149e-11
3.31491e-11
3.31491e-11
3.31491e-11
3.31492e-11
3.31492e-11
3.31492e-11
3.31493e-11
3.31493e-11
3.31493e-11
3.31494e-11
3.31494e-11
3.31494e-11
3.31495e-11
3.31495e-11
3.31496e-11
3.31496e-11
3.31496e-11
3.31497e-11
3.31497e-11
3.31497e-11
3.31498e-11
3.31498e-11
3.31498e-11
3.31499e-11
3.31499e-11
3.315e-11
3.315e-11
3.315e-11
3.31501e-11
3.31501e-11
3.31501e-11
3.31502e-11
3.31502e-11
)
;

boundaryField
{
    fixedWall
    {
        type            zeroGradient;
    }
    outlet
    {
        type            inletOutlet;
        inletValue      uniform 0;
        value           uniform 3.31502e-11;
    }
    defaultFaces
    {
        type            empty;
    }
}


// ************************************************************************* //
