/*--------------------------------*- C++ -*----------------------------------*\
| =========                 |                                                 |
| \\      /  F ield         | OpenFOAM: The Open Source CFD Toolbox           |
|  \\    /   O peration     | Version:  2406                                  |
|   \\  /    A nd           | Website:  www.openfoam.com                      |
|    \\/     M anipulation  |                                                 |
\*---------------------------------------------------------------------------*/
FoamFile
{
    version     2.0;
    format      ascii;
    arch        "LSB;label=32;scalar=64";
    class       surfaceScalarField;
    location    "1";
    object      phi;
}
// * * * * * * * * * * * * * * * * * * * * * * * * * * * * * * * * * * * * * //

dimensions      [1 0 -1 0 0 0 0];

oriented        oriented;

internalField   nonuniform List<scalar> 
999
(
-8.30726e-07
-1.99528e-06
-3.19104e-06
-4.34821e-06
-5.44916e-06
-6.49108e-06
-7.47573e-06
-8.40614e-06
-9.28553e-06
-1.01169e-05
-1.0903e-05
-1.16461e-05
-1.23484e-05
-1.30117e-05
-1.36376e-05
-1.42278e-05
-1.47834e-05
-1.53059e-05
-1.57964e-05
-1.62561e-05
-1.6686e-05
-1.70873e-05
-1.74611e-05
-1.78083e-05
-1.81301e-05
-1.84276e-05
-1.87018e-05
-1.89538e-05
-1.91848e-05
-1.93959e-05
-1.95881e-05
-1.97627e-05
-1.99207e-05
-2.00633e-05
-2.01916e-05
-2.03068e-05
-2.04096e-05
-2.05014e-05
-2.05833e-05
-2.06561e-05
-2.07208e-05
-2.07782e-05
-2.08292e-05
-2.08746e-05
-2.09151e-05
-2.09514e-05
-2.0984e-05
-2.10136e-05
-2.10407e-05
-2.10657e-05
-2.1089e-05
-2.1111e-05
-2.1132e-05
-2.11523e-05
-2.1172e-05
-2.11914e-05
-2.12107e-05
-2.12299e-05
-2.12492e-05
-2.12686e-05
-2.12882e-05
-2.13081e-05
-2.13283e-05
-2.13488e-05
-2.13696e-05
-2.13907e-05
-2.14121e-05
-2.14339e-05
-2.14559e-05
-2.14782e-05
-2.15007e-05
-2.15235e-05
-2.15464e-05
-2.15696e-05
-2.1593e-05
-2.16165e-05
-2.16402e-05
-2.16641e-05
-2.16881e-05
-2.17122e-05
-2.17364e-05
-2.17607e-05
-2.17851e-05
-2.18097e-05
-2.18343e-05
-2.1859e-05
-2.18838e-05
-2.19087e-05
-2.19337e-05
-2.19588e-05
-2.1984e-05
-2.20093e-05
-2.20346e-05
-2.206e-05
-2.20855e-05
-2.21111e-05
-2.21367e-05
-2.21624e-05
-2.21882e-05
-2.22139e-05
-2.22397e-05
-2.22655e-05
-2.22913e-05
-2.2317e-05
-2.23427e-05
-2.23683e-05
-2.23938e-05
-2.24193e-05
-2.24446e-05
-2.24699e-05
-2.2495e-05
-2.252e-05
-2.25449e-05
-2.25697e-05
-2.25944e-05
-2.2619e-05
-2.26435e-05
-2.26679e-05
-2.26923e-05
-2.27165e-05
-2.27408e-05
-2.2765e-05
-2.27893e-05
-2.28136e-05
-2.2838e-05
-2.28624e-05
-2.28869e-05
-2.29113e-05
-2.29356e-05
-2.29597e-05
-2.29834e-05
-2.30065e-05
-2.30288e-05
-2.30501e-05
-2.30701e-05
-2.30886e-05
-2.31053e-05
-2.31199e-05
-2.31322e-05
-2.31417e-05
-2.31482e-05
-2.31513e-05
-2.31507e-05
-2.31454e-05
-2.31296e-05
-2.3084e-05
-2.29534e-05
-2.2591e-05
-2.16036e-05
-1.88201e-05
-1.03045e-05
1.99516e-05
0.000220421
0.000422854
0.000607228
0.000753672
0.000855006
0.000918178
0.000954985
0.000975579
0.000986829
0.000992882
0.000996101
0.000997788
0.000998653
0.000999078
0.000999268
0.000999333
0.000999331
0.000999293
0.000999237
0.00099917
0.000999099
0.000999024
0.000998948
0.000998872
0.000998795
0.000998718
0.00099864
0.000998563
0.000998486
0.00099841
0.000998333
0.000998256
0.00099818
0.000998103
0.000998027
0.000997951
0.000997875
0.000997799
0.000997723
0.000997647
0.000997571
0.000997496
0.00099742
0.000997345
0.00099727
0.000997195
0.00099712
0.000997045
0.00099697
0.000996895
0.000996821
0.000996746
0.000996672
0.000996598
0.000996524
0.00099645
0.000996376
0.000996302
0.000996228
0.000996155
0.000996081
0.000996008
0.000995935
0.000995861
0.000995788
0.000995715
0.000995643
0.00099557
0.000995497
0.000995425
0.000995353
0.00099528
0.000995208
0.000995136
0.000995064
0.000994992
0.000994921
0.000994849
0.000994777
0.000994706
0.000994635
0.000994564
0.000994492
0.000994421
0.000994351
0.00099428
0.000994209
0.000994139
0.000994068
0.000993998
0.000993928
0.000993858
0.000993788
0.000993718
0.000993648
0.000993578
0.000993509
0.000993439
0.00099337
0.000993301
0.000993231
0.000993162
0.000993093
0.000993025
0.000992956
0.000992887
0.000992819
0.00099275
0.000992682
0.000992614
0.000992546
0.000992478
0.00099241
0.000992342
0.000992275
0.000992207
0.00099214
0.000992072
0.000992005
0.000991938
0.000991871
0.000991804
0.000991737
0.000991671
0.000991604
0.000991537
0.000991471
0.000991405
0.000991339
0.000991273
0.000991207
0.000991141
0.000991075
0.000991009
0.000990944
0.000990878
0.000990813
0.000990748
0.000990683
0.000990618
0.000990553
0.000990488
0.000990423
0.000990359
0.000990294
0.00099023
0.000990165
0.000990101
0.000990037
0.000989973
0.000989909
0.000989845
0.000989782
0.000989718
0.000989655
0.000989591
0.000989528
0.000989465
0.000989402
0.000989339
0.000989276
0.000989213
0.000989151
0.000989088
0.000989026
0.000988964
0.000988901
0.000988839
0.000988777
0.000988715
0.000988654
0.000988592
0.00098853
0.000988469
0.000988407
0.000988346
0.000988285
0.000988224
0.000988163
0.000988102
0.000988041
0.00098798
0.00098792
0.000987859
0.000987799
0.000987739
0.000987679
0.000987619
0.000987559
0.000987499
0.000987439
0.000987379
0.00098732
0.00098726
0.000987201
0.000987142
0.000987083
0.000987024
0.000986965
0.000986906
0.000986847
0.000986788
0.00098673
0.000986671
0.000986613
0.000986555
0.000986497
0.000986439
0.000986381
0.000986323
0.000986265
0.000986208
0.00098615
0.000986093
0.000986035
0.000985978
0.000985921
0.000985864
0.000985807
0.00098575
0.000985693
0.000985637
0.00098558
0.000985524
0.000985467
0.000985411
0.000985355
0.000985299
0.000985243
0.000985187
0.000985132
0.000985076
0.00098502
0.000984965
0.00098491
0.000984854
0.000984799
0.000984744
0.000984689
0.000984634
0.00098458
0.000984525
0.000984471
0.000984416
0.000984362
0.000984308
0.000984253
0.000984199
0.000984145
0.000984092
0.000984038
0.000983984
0.000983931
0.000983877
0.000983824
0.000983771
0.000983718
0.000983664
0.000983612
0.000983559
0.000983506
0.000983453
0.000983401
0.000983348
0.000983296
0.000983244
0.000983191
0.000983139
0.000983087
0.000983036
0.000982984
0.000982932
0.000982881
0.000982829
0.000982778
0.000982726
0.000982675
0.000982624
0.000982573
0.000982522
0.000982471
0.000982421
0.00098237
0.00098232
0.000982269
0.000982219
0.000982169
0.000982119
0.000982069
0.000982019
0.000981969
0.000981919
0.000981869
0.00098182
0.00098177
0.000981721
0.000981672
0.000981623
0.000981574
0.000981525
0.000981476
0.000981427
0.000981379
0.00098133
0.000981281
0.000981233
0.000981185
0.000981137
0.000981089
0.000981041
0.000980993
0.000980945
0.000980897
0.00098085
0.000980802
0.000980755
0.000980707
0.00098066
0.000980613
0.000980566
0.000980519
0.000980472
0.000980426
0.000980379
0.000980332
0.000980286
0.00098024
0.000980193
0.000980147
0.000980101
0.000980055
0.000980009
0.000979963
0.000979918
0.000979872
0.000979827
0.000979781
0.000979736
0.000979691
0.000979646
0.000979601
0.000979556
0.000979511
0.000979466
0.000979422
0.000979377
0.000979333
0.000979288
0.000979244
0.0009792
0.000979156
0.000979112
0.000979068
0.000979024
0.00097898
0.000978937
0.000978893
0.00097885
0.000978807
0.000978763
0.00097872
0.000978677
0.000978634
0.000978591
0.000978549
0.000978506
0.000978463
0.000978421
0.000978379
0.000978336
0.000978294
0.000978252
0.00097821
0.000978168
0.000978126
0.000978085
0.000978043
0.000978002
0.00097796
0.000977919
0.000977878
0.000977836
0.000977795
0.000977754
0.000977714
0.000977673
0.000977632
0.000977592
0.000977551
0.000977511
0.00097747
0.00097743
0.00097739
0.00097735
0.00097731
0.00097727
0.00097723
0.000977191
0.000977151
0.000977112
0.000977072
0.000977033
0.000976994
0.000976955
0.000976916
0.000976877
0.000976838
0.000976799
0.000976761
0.000976722
0.000976684
0.000976645
0.000976607
0.000976569
0.000976531
0.000976493
0.000976455
0.000976417
0.000976379
0.000976342
0.000976304
0.000976267
0.00097623
0.000976192
0.000976155
0.000976118
0.000976081
0.000976044
0.000976007
0.000975971
0.000975934
0.000975898
0.000975861
0.000975825
0.000975789
0.000975753
0.000975716
0.000975681
0.000975645
0.000975609
0.000975573
0.000975538
0.000975502
0.000975467
0.000975431
0.000975396
0.000975361
0.000975326
0.000975291
0.000975256
0.000975221
0.000975187
0.000975152
0.000975118
0.000975083
0.000975049
0.000975015
0.000974981
0.000974947
0.000974913
0.000974879
0.000974845
0.000974811
0.000974778
0.000974744
0.000974711
0.000974678
0.000974644
0.000974611
0.000974578
0.000974545
0.000974512
0.00097448
0.000974447
0.000974414
0.000974382
0.000974349
0.000974317
0.000974285
0.000974253
0.000974221
0.000974189
0.000974157
0.000974125
0.000974093
0.000974062
0.00097403
0.000973999
0.000973968
0.000973936
0.000973905
0.000973874
0.000973843
0.000973812
0.000973782
0.000973751
0.00097372
0.00097369
0.000973659
0.000973629
0.000973599
0.000973569
0.000973539
0.000973509
0.000973479
0.000973449
0.000973419
0.00097339
0.00097336
0.000973331
0.000973301
0.000973272
0.000973243
0.000973214
0.000973185
0.000973156
0.000973127
0.000973098
0.00097307
0.000973041
0.000973013
0.000972984
0.000972956
0.000972928
0.0009729
0.000972872
0.000972844
0.000972816
0.000972788
0.000972761
0.000972733
0.000972706
0.000972678
0.000972651
0.000972624
0.000972597
0.00097257
0.000972543
0.000972516
0.000972489
0.000972463
0.000972436
0.00097241
0.000972383
0.000972357
0.000972331
0.000972305
0.000972278
0.000972253
0.000972227
0.000972201
0.000972175
0.00097215
0.000972124
0.000972099
0.000972073
0.000972048
0.000972023
0.000971998
0.000971973
0.000971948
0.000971923
0.000971899
0.000971874
0.000971849
0.000971825
0.000971801
0.000971776
0.000971752
0.000971728
0.000971704
0.00097168
0.000971656
0.000971633
0.000971609
0.000971585
0.000971562
0.000971538
0.000971515
0.000971492
0.000971469
0.000971446
0.000971423
0.0009714
0.000971377
0.000971354
0.000971332
0.000971309
0.000971287
0.000971265
0.000971242
0.00097122
0.000971198
0.000971176
0.000971154
0.000971132
0.000971111
0.000971089
0.000971068
0.000971046
0.000971025
0.000971003
0.000970982
0.000970961
0.00097094
0.000970919
0.000970898
0.000970878
0.000970857
0.000970836
0.000970816
0.000970795
0.000970775
0.000970755
0.000970735
0.000970715
0.000970695
0.000970675
0.000970655
0.000970635
0.000970616
0.000970596
0.000970577
0.000970557
0.000970538
0.000970519
0.0009705
0.000970481
0.000970462
0.000970443
0.000970424
0.000970406
0.000970387
0.000970369
0.00097035
0.000970332
0.000970314
0.000970296
0.000970278
0.00097026
0.000970242
0.000970224
0.000970206
0.000970189
0.000970171
0.000970154
0.000970136
0.000970119
0.000970102
0.000970085
0.000970068
0.000970051
0.000970034
0.000970017
0.000970001
0.000969984
0.000969968
0.000969951
0.000969935
0.000969919
0.000969903
0.000969886
0.000969871
0.000969855
0.000969839
0.000969823
0.000969808
0.000969792
0.000969777
0.000969761
0.000969746
0.000969731
0.000969716
0.000969701
0.000969686
0.000969671
0.000969656
0.000969642
0.000969627
0.000969612
0.000969598
0.000969584
0.00096957
0.000969555
0.000969541
0.000969527
0.000969513
0.0009695
0.000969486
0.000969472
0.000969459
0.000969445
0.000969432
0.000969419
0.000969405
0.000969392
0.000969379
0.000969366
0.000969354
0.000969341
0.000969328
0.000969316
0.000969303
0.000969291
0.000969278
0.000969266
0.000969254
0.000969242
0.00096923
0.000969218
0.000969206
0.000969194
0.000969183
0.000969171
0.00096916
0.000969148
0.000969137
0.000969126
0.000969115
0.000969104
0.000969093
0.000969082
0.000969071
0.00096906
0.00096905
0.000969039
0.000969029
0.000969018
0.000969008
0.000968998
0.000968988
0.000968978
0.000968968
0.000968958
0.000968948
0.000968939
0.000968929
0.00096892
0.00096891
0.000968901
0.000968892
0.000968882
0.000968873
0.000968864
0.000968855
0.000968847
0.000968838
0.000968829
0.000968821
0.000968812
0.000968804
0.000968796
0.000968787
0.000968779
0.000968771
0.000968763
0.000968755
0.000968748
0.00096874
0.000968732
0.000968725
0.000968717
0.00096871
0.000968703
0.000968696
0.000968688
0.000968681
0.000968675
0.000968668
0.000968661
0.000968654
0.000968648
0.000968641
0.000968635
0.000968628
0.000968622
0.000968616
0.00096861
0.000968604
0.000968598
0.000968592
0.000968587
0.000968581
0.000968575
0.00096857
0.000968565
0.000968559
0.000968554
0.000968549
0.000968544
0.000968539
0.000968534
0.000968529
0.000968525
0.00096852
0.000968516
0.000968511
0.000968507
0.000968502
0.000968498
0.000968494
0.00096849
0.000968486
0.000968482
0.000968479
0.000968475
0.000968471
0.000968468
0.000968464
0.000968461
0.000968458
0.000968455
0.000968452
0.000968449
0.000968446
0.000968443
0.00096844
0.000968438
0.000968435
0.000968433
0.00096843
0.000968428
0.000968426
0.000968424
0.000968422
0.00096842
0.000968418
0.000968416
0.000968414
0.000968413
0.000968411
0.00096841
0.000968408
0.000968407
0.000968406
0.000968405
0.000968404
0.000968403
0.000968402
0.000968401
0.0009684
0.0009684
0.000968399
0.000968399
0.000968399
0.000968398
0.000968398
)
;

boundaryField
{
    fixedWall
    {
        type            calculated;
        value           uniform 0;
    }
    outlet
    {
        type            calculated;
        value           uniform 0.000968398;
    }
    defaultFaces
    {
        type            empty;
    }
}


// ************************************************************************* //
