/*--------------------------------*- C++ -*----------------------------------*\
| =========                 |                                                 |
| \\      /  F ield         | OpenFOAM: The Open Source CFD Toolbox           |
|  \\    /   O peration     | Version:  2406                                  |
|   \\  /    A nd           | Website:  www.openfoam.com                      |
|    \\/     M anipulation  |                                                 |
\*---------------------------------------------------------------------------*/
FoamFile
{
    version     2.0;
    format      ascii;
    arch        "LSB;label=32;scalar=64";
    class       volScalarField;
    location    "1";
    object      Qdot;
}
// * * * * * * * * * * * * * * * * * * * * * * * * * * * * * * * * * * * * * //

dimensions      [1 -1 -3 0 0 0 0];

internalField   nonuniform List<scalar> 
1000
(
-1.01988e-07
2.13366e-07
1.33239e-05
0.000206508
0.00146204
0.00641079
0.0204185
0.0518706
0.111479
0.210796
0.360394
0.568198
0.838345
1.17076
1.5614
2.00307
2.48649
3.00146
3.5379
4.08659
4.63975
5.19118
5.73634
6.2722
6.79697
7.30989
7.81092
8.30055
8.77958
9.249
9.70985
10.1632
10.6099
11.0511
11.4875
11.92
12.3486
12.7684
13.1904
13.6173
14.0426
14.4676
14.8932
15.3204
15.7497
16.1822
16.6186
17.0599
17.5068
17.9603
18.4214
18.8909
19.3699
19.8594
20.3603
20.8737
21.4007
21.9422
22.4994
23.0734
23.6652
24.2761
24.9071
25.5595
26.2345
26.9333
27.6572
28.4076
29.1858
29.9934
30.8319
31.7029
32.6081
33.5495
34.529
35.5487
36.6111
37.7186
38.8739
40.0801
41.3403
42.6581
44.0372
45.4819
46.9967
48.5866
50.2571
52.0141
53.8641
55.8144
57.8727
60.0476
62.3482
64.7846
67.3678
70.1097
73.0233
76.1232
79.4249
82.9461
86.706
90.726
95.0302
99.6451
104.601
109.93
115.671
121.867
128.564
135.818
143.69
152.251
161.582
171.776
182.939
195.198
208.697
223.611
240.144
258.543
279.102
302.181
328.217
357.745
391.418
430.047
474.63
526.42
586.988
658.339
743.049
844.485
967.102
1116.91
1302.14
1534.35
1830.09
2213.54
2721.05
3408.95
4368.7
5757.67
7865.05
11258.9
17138.6
28266.3
51705.1
107710
261670
756209
2.52938e+06
9.62492e+06
5.85646e+07
865561
3018.89
15.9424
0.300733
0.0221027
0.00460336
0.00188232
0.00114767
0.000876857
0.000758312
0.000701495
0.00067281
0.000658
0.000650309
0.000646188
0.00064403
0.000642841
0.000642171
0.000641961
0.0006417
0.000641672
0.00064162
0.00064152
0.000641506
0.000641571
0.000641495
0.000641494
0.000641566
0.000641567
0.000641567
0.000641495
0.000641496
0.00064157
0.00064157
0.000641499
0.0006415
0.000641573
0.000641502
0.000641502
0.000641576
0.000641577
0.000641506
0.000641507
0.00064158
0.000641581
0.000641582
0.000641583
0.000641584
0.000641585
0.000641586
0.000641514
0.000641588
0.000641516
0.000641517
0.000641591
0.000641519
0.000641593
0.000641594
0.000641594
0.000641523
0.000641597
0.000641597
0.000641598
0.000641599
0.000641528
0.000641601
0.00064153
0.000641604
0.000641604
0.000641605
0.000641607
0.000641607
0.000641536
0.000641609
0.00064161
0.000641611
0.000641612
0.000641613
0.000641542
0.000641543
0.000641616
0.000641545
0.000641619
0.000641619
0.000641621
0.000641621
0.000641623
0.000641551
0.000641624
0.000641625
0.000641554
0.000641555
0.000641629
0.00064163
0.00064163
0.000641559
0.00064156
0.000641633
0.000641562
0.000641635
0.000641636
0.000641637
0.000641638
0.000641639
0.00064164
0.000641569
0.000641642
0.000641643
0.000641572
0.000641645
0.000641646
0.000641575
0.000641648
0.000641649
0.00064165
0.000641578
0.000641579
0.000641653
0.000641581
0.000641655
0.000641656
0.000641657
0.000641658
0.000641659
0.00064166
0.00064166
0.000641589
0.00064159
0.000641591
0.000641592
0.000641593
0.000641666
0.000641595
0.000641669
0.00064167
0.00064167
0.000641671
0.000641672
0.000641601
0.000641674
0.000641602
0.000641676
0.000641677
0.000641678
0.000641679
0.00064168
0.000641681
0.000641682
0.000641683
0.000641684
0.000641685
0.000641685
0.000641687
0.000641688
0.000641689
0.000641689
0.000641618
0.000641691
0.00064162
0.000641693
0.000641694
0.000641623
0.000641696
0.000641697
0.000641698
0.000641699
0.000641627
0.000641628
0.000641629
0.00064163
0.000641704
0.000641705
0.000641706
0.000641707
0.000641635
0.000641636
0.000641709
0.00064171
0.000641639
0.000641712
0.000641713
0.000641642
0.000641715
0.000641716
0.000641717
0.000641718
0.000641646
0.00064172
0.000641721
0.000641649
0.000641723
0.000641724
0.000641725
0.000641726
0.000641727
0.000641655
0.000641729
0.000641729
0.000641658
0.000641731
0.00064166
0.000641661
0.000641734
0.000641663
0.000641736
0.000641664
0.000641738
0.000641666
0.00064174
0.000641668
0.000641742
0.000641743
0.000641671
0.000641745
0.000641673
0.000641747
0.000641675
0.000641676
0.00064175
0.000641678
0.000641752
0.000641752
0.000641753
0.000641755
0.000641755
0.000641684
0.000641757
0.000641686
0.000641759
0.00064176
0.000641761
0.000641762
0.000641763
0.000641692
0.000641765
0.000641693
0.000641767
0.000641768
0.000641696
0.000641697
0.000641771
0.000641772
0.000641773
0.000641774
0.000641775
0.000641776
0.000641777
0.000641705
0.000641779
0.000641707
0.000641781
0.000641782
0.00064171
0.000641711
0.000641712
0.000641786
0.000641787
0.000641715
0.000641789
0.00064179
0.000641718
0.00064172
0.000641721
0.000641794
0.000641795
0.000641724
0.000641797
0.000641798
0.000641799
0.0006418
0.000641728
0.000641802
0.000641803
0.000641804
0.000641805
0.000641806
0.000641807
0.000641736
0.000641737
0.00064181
0.000641811
0.00064174
0.000641813
0.000641814
0.000641816
0.000641744
0.000641818
0.000641746
0.000641747
0.000641748
0.000641822
0.000641823
0.000641824
0.000641825
0.000641825
0.000641827
0.000641755
0.000641829
0.00064183
0.000641831
0.000641759
0.000641833
0.000641834
0.000641835
0.000641836
0.000641837
0.000641766
0.000641839
0.000641768
0.000641842
0.00064177
0.000641844
0.000641845
0.000641846
0.000641847
0.000641848
0.000641777
0.00064185
0.000641779
0.000641852
0.000641781
0.000641782
0.000641855
0.000641856
0.000641857
0.000641858
0.000641787
0.00064186
0.000641862
0.000641863
0.000641864
0.000641865
0.000641866
0.000641867
0.000641868
0.00064187
0.000641798
0.000641872
0.000641872
0.000641874
0.000641875
0.000641875
0.000641877
0.000641806
0.000641879
0.00064188
0.000641881
0.000641882
0.000641811
0.000641884
0.000641813
0.000641887
0.000641888
0.000641816
0.000641818
0.000641891
0.000641892
0.000641893
0.000641822
0.000641823
0.000641824
0.000641825
0.000641826
0.0006419
0.000641901
0.000641902
0.000641831
0.000641832
0.000641833
0.000641834
0.000641835
0.000641909
0.000641909
0.000641911
0.000641912
0.000641913
0.000641914
0.000641915
0.000641917
0.000641917
0.000641919
0.00064192
0.000641921
0.000641922
0.000641923
0.000641924
0.000641926
0.000641927
0.000641855
0.000641929
0.00064193
0.000641858
0.000641932
0.000641933
0.000641934
0.000641936
0.000641864
0.000641938
0.000641939
0.00064194
0.000641941
0.000641869
0.000641943
0.000641872
0.000641946
0.000641874
0.000641948
0.000641949
0.000641878
0.000641951
0.000641952
0.000641881
0.000641955
0.000641956
0.000641957
0.000641958
0.000641959
0.000641888
0.000641961
0.00064189
0.000641891
0.000641892
0.000641893
0.000641822
0.000641895
0.000641897
0.000641898
0.000641899
0.0006419
0.000641829
0.00064183
0.000641831
0.000641905
0.000641906
0.000641907
0.000641908
0.000641909
0.00064191
0.000641912
0.000641913
0.000641914
0.000641915
0.000641916
0.000641917
0.000641918
0.000641919
0.000641921
0.000641922
0.000641923
0.000641924
0.000641925
0.000641927
0.000641928
0.000641929
0.00064193
0.000641859
0.000641932
0.000641933
0.000641935
0.000641936
0.000641937
0.000641938
0.000641939
0.00064194
0.000641941
0.000641943
0.000641871
0.000641945
0.000641946
0.000641947
0.000641876
0.000641877
0.000641951
0.000641879
0.000641953
0.000641954
0.000641883
0.000641957
0.000641885
0.000641959
0.00064196
0.000641889
0.00064189
0.000641891
0.000641964
0.000641894
0.000641967
0.000641968
0.000641897
0.00064197
0.000641899
0.000641973
0.000641974
0.000641903
0.000641977
0.000641978
0.000641906
0.00064198
0.000641908
0.00064191
0.000641911
0.000641984
0.000641913
0.000641987
0.000641988
0.000641989
0.00064199
0.000641919
0.000641992
0.000641994
0.000641995
0.000641996
0.000641998
0.000641999
0.000642
0.000642001
0.000642002
0.000642003
0.000642005
0.000642006
0.000642007
0.000642008
0.000641937
0.000642011
0.000642012
0.000642013
0.000641941
0.000642015
0.000642016
0.000642017
0.000642019
0.00064202
0.000642021
0.000642022
0.000642024
0.000641952
0.000642026
0.000642027
0.000641956
0.000642029
0.000642031
0.000642032
0.000642033
0.000642034
0.000642035
0.000642037
0.000641965
0.000642039
0.00064204
0.000642041
0.000642043
0.000642044
0.000642045
0.000642046
0.000642047
0.000641976
0.00064205
0.000641978
0.000642052
0.000642053
0.000642054
0.000642055
0.000642057
0.000642058
0.000642059
0.000641988
0.000642062
0.00064199
0.000642064
0.000642065
0.000642067
0.000641995
0.000642069
0.00064207
0.000642071
0.000642
0.000642074
0.000642002
0.000642076
0.000642077
0.000642078
0.00064208
0.000642081
0.000642082
0.000642083
0.000642085
0.000642086
0.000642015
0.000642088
0.000642089
0.000642091
0.00064202
0.000642093
0.000642094
0.000642096
0.000642097
0.000642098
0.000642099
0.0006421
0.000642102
0.000642103
0.000642104
0.000642105
0.000642107
0.000642108
0.000642109
0.00064211
0.000642111
0.00064204
0.000642041
0.000642115
0.000642044
0.000642118
0.000642119
0.000642047
0.000642121
0.000642123
0.000642051
0.000642125
0.000642126
0.000642055
0.000642056
0.00064213
0.000642131
0.000642132
0.000642061
0.000642135
0.000642136
0.000642138
0.000642139
0.000642067
0.000642141
0.000642142
0.000642144
0.000642145
0.000642146
0.000642147
0.000642149
0.00064215
0.000642151
0.000642153
0.000642154
0.000642155
0.000642084
0.000642085
0.000642159
0.00064216
0.000642161
0.000642162
0.000642164
0.000642165
0.000642166
0.000642168
0.000642169
0.00064217
0.000642171
0.000642173
0.000642174
0.000642175
0.000642176
0.000642177
0.000642106
0.00064218
0.000642181
0.00064211
0.000642184
0.000642113
0.000642187
0.000642188
0.000642189
0.00064219
0.000642119
0.000642193
0.000642194
0.000642195
0.000642196
0.000642198
0.000642199
0.0006422
0.000642129
0.000642203
0.000642204
0.000642206
0.000642207
0.000642208
0.000642209
0.000642211
0.000642212
0.000642141
0.000642215
0.000642143
0.000642144
0.000642219
0.00064222
0.000642221
0.00064215
0.000642224
0.000642225
0.000642226
0.000642228
0.000642229
0.000642157
0.000642231
0.000642233
0.000642234
0.000642163
0.000642237
0.000642238
0.000642239
0.000642241
0.000642242
0.000642243
0.000642244
0.000642246
0.000642175
0.000642248
0.00064225
0.000642251
0.000642252
0.000642253
0.000642255
0.000642256
0.000642185
0.000642259
0.00064226
0.000642261
0.00064219
0.000642264
0.000642265
0.000642194
0.000642268
0.000642269
0.00064227
0.000642272
0.000642273
0.000642275
0.000642276
0.000642277
0.000642206
0.00064228
0.000642281
0.000642282
0.000642284
0.000642285
0.000642286
0.000642288
0.000642289
0.00064229
0.000642219
0.000642221
0.000642222
0.000642296
0.000642297
0.000642298
0.0006423
0.000642301
0.000642302
0.000642304
0.000642232
0.000642306
0.000642308
0.000642309
0.00064231
0.000642239
0.000642313
0.000642242
0.000642316
0.000642317
0.000642318
0.00064232
0.000642321
0.000642323
0.000642324
0.000642325
0.000642327
0.000642328
0.000642257
0.000642258
0.000642259
0.000642333
0.000642334
0.000642336
0.000642337
0.000642266
0.00064234
0.000642341
0.00064227
0.000642344
0.000642273
0.000642347
0.000642348
0.000642349
0.000642351
0.000642279
0.000642353
0.000642283
0.000642356
0.000642358
0.000642359
0.00064236
0.000642362
0.000642363
0.000642292
0.000642366
0.000642367
0.000642368
0.00064237
0.000642298
0.000642372
0.000642301
0.000642375
0.000642377
0.000642306
0.000642379
0.000642381
0.000642382
0.000642311
0.000642312
0.000642386
0.000642388
0.000642317
0.00064239
0.000642392
0.000642393
0.000642394
0.000642396
0.000642397
0.000642398
0.0006424
0.000642401
0.000642403
0.000642404
0.000642405
0.000642407
0.000642408
0.00064241
0.000642411
0.00064234
0.000642341
0.000642415
0.000642344
0.000642417
0.000642419
0.000642348
0.000642349
0.00064235
0.000642424
)
;

boundaryField
{
    fixedWall
    {
        type            calculated;
        value           uniform 0;
    }
    outlet
    {
        type            calculated;
        value           uniform 0;
    }
    defaultFaces
    {
        type            empty;
    }
}


// ************************************************************************* //
