/*--------------------------------*- C++ -*----------------------------------*\
| =========                 |                                                 |
| \\      /  F ield         | OpenFOAM: The Open Source CFD Toolbox           |
|  \\    /   O peration     | Version:  2406                                  |
|   \\  /    A nd           | Website:  www.openfoam.com                      |
|    \\/     M anipulation  |                                                 |
\*---------------------------------------------------------------------------*/
FoamFile
{
    version     2.0;
    format      ascii;
    arch        "LSB;label=32;scalar=64";
    class       volVectorField;
    location    "1";
    object      U;
}
// * * * * * * * * * * * * * * * * * * * * * * * * * * * * * * * * * * * * * //

dimensions      [0 1 -1 0 0 0 0];

internalField   nonuniform List<vector> 
1000
(
(-6.30603e-05 0 0)
(-0.000229677 0 0)
(-0.000485316 0 0)
(-0.000784773 0 0)
(-0.001106 0 0)
(-0.0014384 0 0)
(-0.00177591 0 0)
(-0.00211412 0 0)
(-0.00244959 0 0)
(-0.00277972 0 0)
(-0.00310245 0 0)
(-0.00341617 0 0)
(-0.00371961 0 0)
(-0.00401175 0 0)
(-0.00429182 0 0)
(-0.00455921 0 0)
(-0.00481352 0 0)
(-0.00505445 0 0)
(-0.00528185 0 0)
(-0.0054957 0 0)
(-0.00569605 0 0)
(-0.00588308 0 0)
(-0.00605701 0 0)
(-0.00621816 0 0)
(-0.0063669 0 0)
(-0.00650367 0 0)
(-0.00662893 0 0)
(-0.0067432 0 0)
(-0.00684703 0 0)
(-0.00694098 0 0)
(-0.00702564 0 0)
(-0.0071016 0 0)
(-0.00716948 0 0)
(-0.00722986 0 0)
(-0.00728335 0 0)
(-0.00733053 0 0)
(-0.00737194 0 0)
(-0.00740813 0 0)
(-0.00743968 0 0)
(-0.0074671 0 0)
(-0.00749082 0 0)
(-0.00751126 0 0)
(-0.00752914 0 0)
(-0.00754379 0 0)
(-0.00755759 0 0)
(-0.00756885 0 0)
(-0.00757811 0 0)
(-0.00758734 0 0)
(-0.00759476 0 0)
(-0.00760168 0 0)
(-0.00760799 0 0)
(-0.00761383 0 0)
(-0.00761937 0 0)
(-0.00762471 0 0)
(-0.00762996 0 0)
(-0.00763518 0 0)
(-0.00764045 0 0)
(-0.00764581 0 0)
(-0.0076513 0 0)
(-0.00765695 0 0)
(-0.00766278 0 0)
(-0.00766881 0 0)
(-0.00767503 0 0)
(-0.00768146 0 0)
(-0.00768808 0 0)
(-0.0076949 0 0)
(-0.00770191 0 0)
(-0.0077091 0 0)
(-0.00771645 0 0)
(-0.00772396 0 0)
(-0.00773161 0 0)
(-0.00773943 0 0)
(-0.00774729 0 0)
(-0.00775534 0 0)
(-0.0077635 0 0)
(-0.00777168 0 0)
(-0.00778002 0 0)
(-0.0077884 0 0)
(-0.00779687 0 0)
(-0.0078054 0 0)
(-0.00781399 0 0)
(-0.00782264 0 0)
(-0.00783133 0 0)
(-0.00784008 0 0)
(-0.00784887 0 0)
(-0.00785771 0 0)
(-0.00786659 0 0)
(-0.0078755 0 0)
(-0.00788445 0 0)
(-0.00789344 0 0)
(-0.00790246 0 0)
(-0.00791151 0 0)
(-0.00792059 0 0)
(-0.0079297 0 0)
(-0.00793883 0 0)
(-0.00794799 0 0)
(-0.00795716 0 0)
(-0.00796635 0 0)
(-0.00797555 0 0)
(-0.00798475 0 0)
(-0.00799396 0 0)
(-0.00800316 0 0)
(-0.00801234 0 0)
(-0.00802152 0 0)
(-0.00803067 0 0)
(-0.00803979 0 0)
(-0.00804888 0 0)
(-0.00805793 0 0)
(-0.00806694 0 0)
(-0.00807592 0 0)
(-0.00808485 0 0)
(-0.00809374 0 0)
(-0.00810259 0 0)
(-0.0081114 0 0)
(-0.00812017 0 0)
(-0.00812891 0 0)
(-0.00813761 0 0)
(-0.00814629 0 0)
(-0.00815495 0 0)
(-0.00816359 0 0)
(-0.00817221 0 0)
(-0.00818083 0 0)
(-0.00818945 0 0)
(-0.00819808 0 0)
(-0.00820673 0 0)
(-0.0082154 0 0)
(-0.00822408 0 0)
(-0.00823274 0 0)
(-0.00824137 0 0)
(-0.00824998 0 0)
(-0.00825833 0 0)
(-0.00826662 0 0)
(-0.00827465 0 0)
(-0.00828223 0 0)
(-0.00828952 0 0)
(-0.00829625 0 0)
(-0.00830242 0 0)
(-0.00830792 0 0)
(-0.00831266 0 0)
(-0.00831654 0 0)
(-0.0083194 0 0)
(-0.00832116 0 0)
(-0.00832149 0 0)
(-0.00832145 0 0)
(-0.00831264 0 0)
(-0.00830058 0 0)
(-0.00826698 0 0)
(-0.00823748 0 0)
(-0.00832909 0 0)
(-0.00827047 0 0)
(-0.00814873 0 0)
(-0.000111709 0 0)
(0.0338013 0 0)
(0.0775378 0 0)
(0.100937 0 0)
(0.109899 0 0)
(0.113247 0 0)
(0.114407 0 0)
(0.114762 0 0)
(0.11488 0 0)
(0.114923 0 0)
(0.114918 0 0)
(0.114937 0 0)
(0.114883 0 0)
(0.114913 0 0)
(0.114945 0 0)
(0.114948 0 0)
(0.114676 0 0)
(0.114946 0 0)
(0.114984 0 0)
(0.114804 0 0)
(0.114792 0 0)
(0.114899 0 0)
(0.114795 0 0)
(0.114831 0 0)
(0.114824 0 0)
(0.114798 0 0)
(0.114777 0 0)
(0.11484 0 0)
(0.11467 0 0)
(0.114825 0 0)
(0.114842 0 0)
(0.114629 0 0)
(0.114833 0 0)
(0.114629 0 0)
(0.114767 0 0)
(0.114857 0 0)
(0.114463 0 0)
(0.114769 0 0)
(0.114799 0 0)
(0.114629 0 0)
(0.114669 0 0)
(0.114589 0 0)
(0.114693 0 0)
(0.114739 0 0)
(0.114528 0 0)
(0.114672 0 0)
(0.114593 0 0)
(0.114676 0 0)
(0.114493 0 0)
(0.114633 0 0)
(0.114677 0 0)
(0.11447 0 0)
(0.114604 0 0)
(0.114556 0 0)
(0.114552 0 0)
(0.114543 0 0)
(0.114537 0 0)
(0.114512 0 0)
(0.114535 0 0)
(0.11449 0 0)
(0.114503 0 0)
(0.114517 0 0)
(0.114461 0 0)
(0.114465 0 0)
(0.114471 0 0)
(0.114521 0 0)
(0.114319 0 0)
(0.114494 0 0)
(0.114568 0 0)
(0.114207 0 0)
(0.114497 0 0)
(0.114539 0 0)
(0.114182 0 0)
(0.114497 0 0)
(0.114434 0 0)
(0.114334 0 0)
(0.114303 0 0)
(0.11438 0 0)
(0.114498 0 0)
(0.11413 0 0)
(0.114396 0 0)
(0.114475 0 0)
(0.1141 0 0)
(0.114388 0 0)
(0.114392 0 0)
(0.114172 0 0)
(0.114359 0 0)
(0.114223 0 0)
(0.114268 0 0)
(0.114376 0 0)
(0.114086 0 0)
(0.114292 0 0)
(0.114378 0 0)
(0.114022 0 0)
(0.114282 0 0)
(0.114347 0 0)
(0.114016 0 0)
(0.114272 0 0)
(0.114239 0 0)
(0.114142 0 0)
(0.114101 0 0)
(0.114221 0 0)
(0.114228 0 0)
(0.114051 0 0)
(0.11416 0 0)
(0.114164 0 0)
(0.114083 0 0)
(0.114117 0 0)
(0.114213 0 0)
(0.113947 0 0)
(0.114132 0 0)
(0.114228 0 0)
(0.113872 0 0)
(0.114149 0 0)
(0.114145 0 0)
(0.113957 0 0)
(0.114063 0 0)
(0.114084 0 0)
(0.113941 0 0)
(0.114063 0 0)
(0.114136 0 0)
(0.113806 0 0)
(0.114083 0 0)
(0.114114 0 0)
(0.113774 0 0)
(0.11408 0 0)
(0.114021 0 0)
(0.113903 0 0)
(0.113902 0 0)
(0.114033 0 0)
(0.113907 0 0)
(0.113906 0 0)
(0.114019 0 0)
(0.11382 0 0)
(0.113927 0 0)
(0.113925 0 0)
(0.113869 0 0)
(0.113885 0 0)
(0.113929 0 0)
(0.113809 0 0)
(0.11387 0 0)
(0.11394 0 0)
(0.113718 0 0)
(0.113879 0 0)
(0.113972 0 0)
(0.113623 0 0)
(0.113898 0 0)
(0.113889 0 0)
(0.113705 0 0)
(0.113833 0 0)
(0.113796 0 0)
(0.113765 0 0)
(0.113816 0 0)
(0.11368 0 0)
(0.113799 0 0)
(0.113868 0 0)
(0.113553 0 0)
(0.113821 0 0)
(0.113846 0 0)
(0.113518 0 0)
(0.113823 0 0)
(0.113753 0 0)
(0.113654 0 0)
(0.113639 0 0)
(0.113731 0 0)
(0.113766 0 0)
(0.113557 0 0)
(0.113742 0 0)
(0.113576 0 0)
(0.11369 0 0)
(0.113756 0 0)
(0.113439 0 0)
(0.113733 0 0)
(0.113683 0 0)
(0.113524 0 0)
(0.11365 0 0)
(0.113588 0 0)
(0.113629 0 0)
(0.113492 0 0)
(0.113655 0 0)
(0.113617 0 0)
(0.113522 0 0)
(0.113511 0 0)
(0.113575 0 0)
(0.113672 0 0)
(0.113355 0 0)
(0.113598 0 0)
(0.113646 0 0)
(0.113326 0 0)
(0.113596 0 0)
(0.113582 0 0)
(0.113386 0 0)
(0.113568 0 0)
(0.113399 0 0)
(0.11351 0 0)
(0.113582 0 0)
(0.113282 0 0)
(0.113576 0 0)
(0.113421 0 0)
(0.113429 0 0)
(0.113508 0 0)
(0.113351 0 0)
(0.113439 0 0)
(0.113422 0 0)
(0.113437 0 0)
(0.113373 0 0)
(0.113405 0 0)
(0.113387 0 0)
(0.113407 0 0)
(0.113295 0 0)
(0.113457 0 0)
(0.113345 0 0)
(0.11335 0 0)
(0.113342 0 0)
(0.113338 0 0)
(0.113396 0 0)
(0.113269 0 0)
(0.113295 0 0)
(0.113391 0 0)
(0.11327 0 0)
(0.113304 0 0)
(0.11336 0 0)
(0.11322 0 0)
(0.113282 0 0)
(0.113297 0 0)
(0.113317 0 0)
(0.113194 0 0)
(0.113315 0 0)
(0.11318 0 0)
(0.113289 0 0)
(0.11334 0 0)
(0.113019 0 0)
(0.113323 0 0)
(0.113324 0 0)
(0.11311 0 0)
(0.113218 0 0)
(0.113237 0 0)
(0.113179 0 0)
(0.113131 0 0)
(0.113226 0 0)
(0.113272 0 0)
(0.11299 0 0)
(0.113247 0 0)
(0.113258 0 0)
(0.112963 0 0)
(0.113242 0 0)
(0.113196 0 0)
(0.11304 0 0)
(0.113157 0 0)
(0.113124 0 0)
(0.113118 0 0)
(0.113098 0 0)
(0.113112 0 0)
(0.113038 0 0)
(0.113143 0 0)
(0.113118 0 0)
(0.113014 0 0)
(0.11312 0 0)
(0.112954 0 0)
(0.113115 0 0)
(0.113145 0 0)
(0.113012 0 0)
(0.112965 0 0)
(0.113094 0 0)
(0.112957 0 0)
(0.113081 0 0)
(0.113093 0 0)
(0.112832 0 0)
(0.113056 0 0)
(0.113076 0 0)
(0.113007 0 0)
(0.112964 0 0)
(0.112929 0 0)
(0.11299 0 0)
(0.113009 0 0)
(0.112878 0 0)
(0.113005 0 0)
(0.113042 0 0)
(0.112773 0 0)
(0.113026 0 0)
(0.112992 0 0)
(0.112828 0 0)
(0.112985 0 0)
(0.112837 0 0)
(0.112976 0 0)
(0.11294 0 0)
(0.112846 0 0)
(0.112847 0 0)
(0.112934 0 0)
(0.112948 0 0)
(0.11279 0 0)
(0.112886 0 0)
(0.112891 0 0)
(0.11278 0 0)
(0.11292 0 0)
(0.112887 0 0)
(0.11277 0 0)
(0.112834 0 0)
(0.112882 0 0)
(0.112767 0 0)
(0.112849 0 0)
(0.112873 0 0)
(0.11272 0 0)
(0.112833 0 0)
(0.112796 0 0)
(0.112786 0 0)
(0.112813 0 0)
(0.112696 0 0)
(0.11285 0 0)
(0.112798 0 0)
(0.112712 0 0)
(0.112716 0 0)
(0.112807 0 0)
(0.112793 0 0)
(0.11268 0 0)
(0.11269 0 0)
(0.112799 0 0)
(0.112761 0 0)
(0.112661 0 0)
(0.112682 0 0)
(0.112744 0 0)
(0.11277 0 0)
(0.112595 0 0)
(0.11274 0 0)
(0.112701 0 0)
(0.112666 0 0)
(0.112627 0 0)
(0.112728 0 0)
(0.112705 0 0)
(0.112589 0 0)
(0.112672 0 0)
(0.112667 0 0)
(0.112618 0 0)
(0.112651 0 0)
(0.112679 0 0)
(0.11255 0 0)
(0.112664 0 0)
(0.112652 0 0)
(0.112571 0 0)
(0.112613 0 0)
(0.112622 0 0)
(0.112519 0 0)
(0.112666 0 0)
(0.112624 0 0)
(0.112513 0 0)
(0.112575 0 0)
(0.112622 0 0)
(0.112515 0 0)
(0.112592 0 0)
(0.112605 0 0)
(0.112475 0 0)
(0.112566 0 0)
(0.112555 0 0)
(0.11254 0 0)
(0.112533 0 0)
(0.112461 0 0)
(0.112579 0 0)
(0.112574 0 0)
(0.112405 0 0)
(0.11256 0 0)
(0.11252 0 0)
(0.11246 0 0)
(0.112519 0 0)
(0.112411 0 0)
(0.112553 0 0)
(0.112528 0 0)
(0.112372 0 0)
(0.112523 0 0)
(0.112397 0 0)
(0.112504 0 0)
(0.112529 0 0)
(0.112283 0 0)
(0.112546 0 0)
(0.112479 0 0)
(0.112346 0 0)
(0.112458 0 0)
(0.112424 0 0)
(0.112419 0 0)
(0.112408 0 0)
(0.112421 0 0)
(0.112402 0 0)
(0.112395 0 0)
(0.112402 0 0)
(0.112376 0 0)
(0.11241 0 0)
(0.112318 0 0)
(0.112425 0 0)
(0.112447 0 0)
(0.112209 0 0)
(0.112446 0 0)
(0.112431 0 0)
(0.112188 0 0)
(0.112453 0 0)
(0.112389 0 0)
(0.112245 0 0)
(0.112374 0 0)
(0.112282 0 0)
(0.112396 0 0)
(0.112293 0 0)
(0.112319 0 0)
(0.112297 0 0)
(0.112312 0 0)
(0.112353 0 0)
(0.112232 0 0)
(0.112294 0 0)
(0.112313 0 0)
(0.112318 0 0)
(0.112213 0 0)
(0.112313 0 0)
(0.11229 0 0)
(0.112235 0 0)
(0.112268 0 0)
(0.112264 0 0)
(0.112236 0 0)
(0.112277 0 0)
(0.112257 0 0)
(0.112187 0 0)
(0.112283 0 0)
(0.112173 0 0)
(0.11227 0 0)
(0.112297 0 0)
(0.112056 0 0)
(0.112313 0 0)
(0.112253 0 0)
(0.112133 0 0)
(0.112211 0 0)
(0.112229 0 0)
(0.112126 0 0)
(0.112241 0 0)
(0.112243 0 0)
(0.112081 0 0)
(0.112235 0 0)
(0.112104 0 0)
(0.112221 0 0)
(0.112219 0 0)
(0.112069 0 0)
(0.112195 0 0)
(0.112127 0 0)
(0.11217 0 0)
(0.112166 0 0)
(0.112103 0 0)
(0.112124 0 0)
(0.112176 0 0)
(0.112065 0 0)
(0.11215 0 0)
(0.112191 0 0)
(0.112002 0 0)
(0.112165 0 0)
(0.112141 0 0)
(0.112038 0 0)
(0.112141 0 0)
(0.112027 0 0)
(0.112151 0 0)
(0.112135 0 0)
(0.112001 0 0)
(0.11211 0 0)
(0.11206 0 0)
(0.112085 0 0)
(0.11204 0 0)
(0.112107 0 0)
(0.112013 0 0)
(0.112095 0 0)
(0.11208 0 0)
(0.111994 0 0)
(0.112012 0 0)
(0.112098 0 0)
(0.11207 0 0)
(0.111972 0 0)
(0.112 0 0)
(0.112074 0 0)
(0.112083 0 0)
(0.111868 0 0)
(0.112109 0 0)
(0.112062 0 0)
(0.11184 0 0)
(0.112062 0 0)
(0.112086 0 0)
(0.11199 0 0)
(0.111985 0 0)
(0.111867 0 0)
(0.112085 0 0)
(0.112018 0 0)
(0.111898 0 0)
(0.111991 0 0)
(0.111981 0 0)
(0.111939 0 0)
(0.111971 0 0)
(0.112015 0 0)
(0.111849 0 0)
(0.112017 0 0)
(0.112006 0 0)
(0.111788 0 0)
(0.112045 0 0)
(0.111964 0 0)
(0.111865 0 0)
(0.111927 0 0)
(0.111974 0 0)
(0.111879 0 0)
(0.11194 0 0)
(0.11197 0 0)
(0.111842 0 0)
(0.111914 0 0)
(0.111928 0 0)
(0.111839 0 0)
(0.111959 0 0)
(0.111942 0 0)
(0.11181 0 0)
(0.111905 0 0)
(0.111902 0 0)
(0.11182 0 0)
(0.111945 0 0)
(0.111914 0 0)
(0.11178 0 0)
(0.111912 0 0)
(0.111806 0 0)
(0.111931 0 0)
(0.111881 0 0)
(0.111785 0 0)
(0.111865 0 0)
(0.11186 0 0)
(0.11187 0 0)
(0.111791 0 0)
(0.111864 0 0)
(0.111852 0 0)
(0.111805 0 0)
(0.111839 0 0)
(0.111821 0 0)
(0.111833 0 0)
(0.111726 0 0)
(0.111892 0 0)
(0.111904 0 0)
(0.111679 0 0)
(0.11184 0 0)
(0.111885 0 0)
(0.111611 0 0)
(0.111914 0 0)
(0.111864 0 0)
(0.11167 0 0)
(0.111836 0 0)
(0.11182 0 0)
(0.111727 0 0)
(0.111748 0 0)
(0.111823 0 0)
(0.111819 0 0)
(0.111693 0 0)
(0.111784 0 0)
(0.111774 0 0)
(0.111744 0 0)
(0.111765 0 0)
(0.111775 0 0)
(0.111713 0 0)
(0.111765 0 0)
(0.111764 0 0)
(0.111702 0 0)
(0.111771 0 0)
(0.111735 0 0)
(0.11172 0 0)
(0.111688 0 0)
(0.1118 0 0)
(0.111719 0 0)
(0.111683 0 0)
(0.111785 0 0)
(0.111618 0 0)
(0.111771 0 0)
(0.111743 0 0)
(0.111656 0 0)
(0.11171 0 0)
(0.111719 0 0)
(0.111645 0 0)
(0.111747 0 0)
(0.111744 0 0)
(0.111555 0 0)
(0.111788 0 0)
(0.111677 0 0)
(0.11167 0 0)
(0.111662 0 0)
(0.111699 0 0)
(0.111714 0 0)
(0.111604 0 0)
(0.111661 0 0)
(0.111714 0 0)
(0.11163 0 0)
(0.111687 0 0)
(0.111688 0 0)
(0.1116 0 0)
(0.111626 0 0)
(0.111713 0 0)
(0.111677 0 0)
(0.111579 0 0)
(0.11162 0 0)
(0.111693 0 0)
(0.11169 0 0)
(0.111493 0 0)
(0.111737 0 0)
(0.11165 0 0)
(0.11157 0 0)
(0.111599 0 0)
(0.111672 0 0)
(0.111671 0 0)
(0.111471 0 0)
(0.111722 0 0)
(0.111636 0 0)
(0.111543 0 0)
(0.111604 0 0)
(0.111654 0 0)
(0.111568 0 0)
(0.111626 0 0)
(0.111637 0 0)
(0.111526 0 0)
(0.111612 0 0)
(0.111602 0 0)
(0.111536 0 0)
(0.111654 0 0)
(0.111616 0 0)
(0.111504 0 0)
(0.111606 0 0)
(0.111569 0 0)
(0.111585 0 0)
(0.111595 0 0)
(0.11149 0 0)
(0.111642 0 0)
(0.111605 0 0)
(0.111493 0 0)
(0.111569 0 0)
(0.111572 0 0)
(0.111527 0 0)
(0.111582 0 0)
(0.111593 0 0)
(0.111471 0 0)
(0.1116 0 0)
(0.111569 0 0)
(0.111482 0 0)
(0.111579 0 0)
(0.111484 0 0)
(0.111599 0 0)
(0.111565 0 0)
(0.111468 0 0)
(0.111501 0 0)
(0.111598 0 0)
(0.111559 0 0)
(0.111452 0 0)
(0.111531 0 0)
(0.111548 0 0)
(0.111476 0 0)
(0.111553 0 0)
(0.111566 0 0)
(0.111378 0 0)
(0.111616 0 0)
(0.111488 0 0)
(0.111492 0 0)
(0.111575 0 0)
(0.111384 0 0)
(0.111571 0 0)
(0.111527 0 0)
(0.11144 0 0)
(0.111502 0 0)
(0.111517 0 0)
(0.111495 0 0)
(0.111472 0 0)
(0.111497 0 0)
(0.111474 0 0)
(0.111497 0 0)
(0.111426 0 0)
(0.111553 0 0)
(0.111506 0 0)
(0.111405 0 0)
(0.11149 0 0)
(0.11148 0 0)
(0.111426 0 0)
(0.111541 0 0)
(0.111442 0 0)
(0.111464 0 0)
(0.111521 0 0)
(0.111389 0 0)
(0.111476 0 0)
(0.111463 0 0)
(0.111463 0 0)
(0.111455 0 0)
(0.111442 0 0)
(0.11146 0 0)
(0.111405 0 0)
(0.111519 0 0)
(0.111431 0 0)
(0.11144 0 0)
(0.111437 0 0)
(0.111456 0 0)
(0.111475 0 0)
(0.111374 0 0)
(0.111427 0 0)
(0.111497 0 0)
(0.111372 0 0)
(0.111451 0 0)
(0.111523 0 0)
(0.11138 0 0)
(0.111374 0 0)
(0.111466 0 0)
(0.111408 0 0)
(0.111454 0 0)
(0.111331 0 0)
(0.111485 0 0)
(0.111507 0 0)
(0.11135 0 0)
(0.11139 0 0)
(0.111389 0 0)
(0.111469 0 0)
(0.111453 0 0)
(0.111338 0 0)
(0.111424 0 0)
(0.111422 0 0)
(0.111359 0 0)
(0.111457 0 0)
(0.111451 0 0)
(0.111274 0 0)
(0.111488 0 0)
(0.111446 0 0)
(0.111266 0 0)
(0.111483 0 0)
(0.111445 0 0)
(0.111261 0 0)
(0.111477 0 0)
(0.111445 0 0)
(0.111258 0 0)
(0.111473 0 0)
(0.111436 0 0)
(0.111249 0 0)
(0.111483 0 0)
(0.111427 0 0)
(0.111295 0 0)
(0.111415 0 0)
(0.111335 0 0)
(0.111438 0 0)
(0.111426 0 0)
(0.111247 0 0)
(0.111461 0 0)
(0.11142 0 0)
(0.111244 0 0)
(0.111463 0 0)
(0.111417 0 0)
(0.11123 0 0)
(0.111475 0 0)
(0.111389 0 0)
(0.111301 0 0)
(0.11135 0 0)
(0.111431 0 0)
(0.111337 0 0)
(0.111377 0 0)
(0.111398 0 0)
(0.111299 0 0)
(0.111342 0 0)
(0.111405 0 0)
(0.111406 0 0)
(0.111235 0 0)
(0.111447 0 0)
(0.111339 0 0)
(0.111354 0 0)
(0.111411 0 0)
(0.11122 0 0)
(0.111442 0 0)
(0.111394 0 0)
(0.111216 0 0)
(0.111451 0 0)
(0.111378 0 0)
(0.111272 0 0)
(0.111372 0 0)
(0.111332 0 0)
(0.111373 0 0)
(0.111348 0 0)
(0.111322 0 0)
(0.111356 0 0)
(0.111331 0 0)
(0.111354 0 0)
(0.111288 0 0)
(0.111412 0 0)
(0.111356 0 0)
(0.111275 0 0)
(0.111335 0 0)
(0.111376 0 0)
(0.111367 0 0)
(0.111268 0 0)
(0.111369 0 0)
(0.111279 0 0)
(0.111397 0 0)
(0.11137 0 0)
(0.111255 0 0)
(0.11134 0 0)
(0.111359 0 0)
(0.111339 0 0)
(0.111308 0 0)
(0.111325 0 0)
(0.111334 0 0)
(0.111288 0 0)
(0.111391 0 0)
(0.111316 0 0)
(0.111322 0 0)
(0.111315 0 0)
(0.111337 0 0)
(0.111362 0 0)
(0.111261 0 0)
(0.111328 0 0)
(0.111351 0 0)
(0.111344 0 0)
(0.111264 0 0)
(0.111354 0 0)
(0.111335 0 0)
(0.1113 0 0)
(0.111328 0 0)
(0.11132 0 0)
(0.111316 0 0)
(0.111326 0 0)
(0.111306 0 0)
(0.111338 0 0)
(0.111269 0 0)
(0.111361 0 0)
(0.111371 0 0)
(0.111191 0 0)
(0.11141 0 0)
(0.111294 0 0)
(0.111312 0 0)
(0.111378 0 0)
(0.111182 0 0)
(0.111418 0 0)
(0.111345 0 0)
(0.111236 0 0)
(0.111349 0 0)
(0.111215 0 0)
(0.111407 0 0)
(0.111387 0 0)
(0.111224 0 0)
(0.111333 0 0)
(0.111305 0 0)
(0.111321 0 0)
(0.111369 0 0)
(0.111183 0 0)
(0.111402 0 0)
(0.111354 0 0)
(0.111179 0 0)
(0.111412 0 0)
(0.111339 0 0)
(0.11124 0 0)
(0.111336 0 0)
(0.111315 0 0)
(0.111312 0 0)
(0.111309 0 0)
(0.111311 0 0)
(0.111299 0 0)
(0.111341 0 0)
(0.111307 0 0)
(0.111296 0 0)
(0.111318 0 0)
)
;

boundaryField
{
    fixedWall
    {
        type            fixedValue;
        value           uniform (0 0 0);
    }
    outlet
    {
        type            pressureInletOutletVelocity;
        value           uniform (0.111318 0 0);
    }
    defaultFaces
    {
        type            empty;
    }
}


// ************************************************************************* //
