/*--------------------------------*- C++ -*----------------------------------*\
| =========                 |                                                 |
| \\      /  F ield         | OpenFOAM: The Open Source CFD Toolbox           |
|  \\    /   O peration     | Version:  2406                                  |
|   \\  /    A nd           | Website:  www.openfoam.com                      |
|    \\/     M anipulation  |                                                 |
\*---------------------------------------------------------------------------*/
FoamFile
{
    version     2.0;
    format      ascii;
    arch        "LSB;label=32;scalar=64";
    class       volScalarField;
    location    "10.2";
    object      T;
}
// * * * * * * * * * * * * * * * * * * * * * * * * * * * * * * * * * * * * * //

dimensions      [0 0 0 1 0 0 0];

internalField   nonuniform List<scalar> 
1000
(
305.736
329.205
350.931
371.194
390.202
408.117
425.069
441.163
456.484
471.105
485.088
498.485
511.341
523.697
535.587
547.042
558.089
568.752
579.054
589.014
598.65
607.978
617.014
625.77
634.26
642.494
650.485
658.24
665.771
673.084
680.189
687.093
693.803
700.325
706.667
712.832
718.829
724.66
730.333
735.851
741.219
746.441
751.522
756.466
761.276
765.955
770.509
774.939
779.25
783.444
787.525
791.494
795.356
799.113
802.768
806.322
809.78
813.142
816.411
819.591
822.682
825.688
828.609
831.449
834.209
836.891
839.498
842.03
844.49
846.88
849.2
851.454
853.643
855.767
857.83
859.831
861.774
863.659
865.487
867.261
868.981
870.649
872.266
873.834
875.354
876.826
878.253
879.635
880.974
882.271
883.526
884.741
885.918
887.056
888.157
889.223
890.253
891.25
892.213
893.144
894.044
894.914
895.754
896.566
897.35
898.106
898.837
899.542
900.222
900.878
901.511
902.121
902.71
903.277
903.824
904.35
904.858
905.346
905.817
906.27
906.706
907.125
907.529
907.917
908.291
908.649
908.994
909.326
909.644
909.95
910.244
910.526
910.797
911.057
911.306
911.545
911.774
911.994
912.205
912.407
912.6
912.785
912.963
913.133
913.295
913.451
913.6
913.742
913.878
914.008
914.132
914.251
914.365
914.473
914.576
914.675
914.769
914.859
914.945
915.026
915.104
915.178
915.249
915.316
915.38
915.441
915.5
915.555
915.608
915.658
915.705
915.75
915.793
915.834
915.873
915.91
915.944
915.977
916.009
916.038
916.067
916.093
916.118
916.142
916.165
916.186
916.206
916.226
916.244
916.261
916.277
916.292
916.306
916.32
916.332
916.344
916.355
916.366
916.376
916.385
916.394
916.402
916.41
916.417
916.424
916.43
916.436
916.442
916.447
916.452
916.456
916.46
916.464
916.468
916.471
916.474
916.477
916.48
916.482
916.484
916.486
916.488
916.49
916.492
916.493
916.494
916.495
916.497
916.497
916.498
916.499
916.5
916.5
916.501
916.501
916.501
916.502
916.502
916.502
916.502
916.502
916.502
916.502
916.502
916.502
916.502
916.502
916.502
916.502
916.501
916.501
916.501
916.501
916.5
916.5
916.5
916.499
916.499
916.499
916.499
916.498
916.498
916.498
916.497
916.497
916.497
916.496
916.496
916.496
916.495
916.495
916.495
916.495
916.494
916.494
916.494
916.493
916.493
916.493
916.493
916.493
916.492
916.492
916.492
916.492
916.492
916.491
916.491
916.491
916.491
916.491
916.491
916.491
916.491
916.491
916.491
916.491
916.49
916.49
916.49
916.49
916.49
916.49
916.49
916.491
916.491
916.491
916.491
916.491
916.491
916.491
916.491
916.491
916.491
916.491
916.491
916.492
916.492
916.492
916.492
916.492
916.492
916.493
916.493
916.493
916.493
916.493
916.494
916.494
916.494
916.494
916.495
916.495
916.495
916.495
916.495
916.496
916.496
916.496
916.497
916.497
916.497
916.497
916.498
916.498
916.498
916.498
916.499
916.499
916.499
916.499
916.5
916.5
916.5
916.501
916.501
916.501
916.501
916.502
916.502
916.502
916.502
916.503
916.503
916.503
916.503
916.504
916.504
916.504
916.504
916.505
916.505
916.505
916.505
916.506
916.506
916.506
916.506
916.506
916.507
916.507
916.507
916.507
916.507
916.508
916.508
916.508
916.508
916.508
916.508
916.509
916.509
916.509
916.509
916.509
916.509
916.509
916.51
916.51
916.51
916.51
916.51
916.51
916.51
916.51
916.511
916.511
916.511
916.511
916.511
916.511
916.511
916.511
916.511
916.511
916.511
916.512
916.512
916.512
916.512
916.512
916.512
916.512
916.512
916.512
916.512
916.512
916.512
916.512
916.512
916.512
916.512
916.512
916.513
916.513
916.513
916.513
916.513
916.513
916.513
916.513
916.513
916.513
916.513
916.513
916.513
916.513
916.513
916.513
916.513
916.513
916.513
916.513
916.513
916.513
916.513
916.513
916.514
916.514
916.514
916.514
916.514
916.514
916.514
916.514
916.514
916.514
916.514
916.514
916.514
916.514
916.514
916.514
916.514
916.514
916.514
916.514
916.514
916.514
916.514
916.514
916.514
916.514
916.514
916.515
916.515
916.515
916.515
916.515
916.515
916.515
916.515
916.515
916.515
916.515
916.515
916.515
916.515
916.515
916.515
916.515
916.515
916.515
916.515
916.515
916.515
916.515
916.515
916.515
916.515
916.515
916.515
916.515
916.515
916.515
916.515
916.515
916.515
916.515
916.515
916.515
916.515
916.515
916.515
916.515
916.515
916.515
916.515
916.515
916.515
916.515
916.515
916.515
916.515
916.515
916.515
916.515
916.515
916.515
916.515
916.515
916.515
916.515
916.515
916.515
916.515
916.515
916.515
916.515
916.515
916.515
916.515
916.516
916.516
916.516
916.516
916.516
916.516
916.516
916.516
916.516
916.516
916.516
916.516
916.516
916.516
916.516
916.516
916.516
916.516
916.516
916.516
916.516
916.516
916.516
916.516
916.516
916.517
916.517
916.517
916.517
916.517
916.517
916.517
916.517
916.517
916.517
916.517
916.517
916.517
916.517
916.517
916.517
916.517
916.517
916.518
916.518
916.518
916.518
916.518
916.518
916.518
916.518
916.518
916.518
916.518
916.518
916.518
916.518
916.518
916.518
916.518
916.518
916.518
916.518
916.518
916.518
916.518
916.518
916.518
916.518
916.518
916.518
916.518
916.518
916.518
916.518
916.518
916.518
916.518
916.518
916.518
916.518
916.518
916.518
916.518
916.518
916.518
916.518
916.518
916.518
916.518
916.518
916.518
916.518
916.518
916.518
916.518
916.518
916.518
916.518
916.518
916.518
916.517
916.517
916.517
916.517
916.517
916.517
916.517
916.517
916.517
916.517
916.517
916.517
916.517
916.517
916.517
916.517
916.517
916.517
916.517
916.517
916.517
916.517
916.517
916.517
916.517
916.517
916.517
916.517
916.517
916.517
916.517
916.517
916.517
916.517
916.517
916.517
916.517
916.517
916.517
916.517
916.517
916.517
916.517
916.517
916.517
916.517
916.517
916.517
916.517
916.517
916.517
916.518
916.518
916.518
916.518
916.518
916.518
916.518
916.518
916.518
916.518
916.519
916.519
916.519
916.519
916.519
916.519
916.519
916.519
916.52
916.52
916.52
916.52
916.52
916.52
916.52
916.52
916.52
916.521
916.521
916.521
916.521
916.521
916.521
916.521
916.521
916.521
916.521
916.521
916.521
916.521
916.521
916.522
916.522
916.522
916.522
916.522
916.522
916.522
916.522
916.522
916.522
916.522
916.521
916.521
916.521
916.521
916.521
916.521
916.521
916.521
916.521
916.521
916.521
916.521
916.52
916.52
916.52
916.52
916.52
916.52
916.519
916.519
916.519
916.519
916.519
916.518
916.518
916.518
916.518
916.518
916.517
916.517
916.517
916.516
916.516
916.516
916.516
916.515
916.515
916.515
916.514
916.514
916.513
916.513
916.513
916.512
916.512
916.511
916.511
916.51
916.51
916.509
916.508
916.507
916.507
916.506
916.505
916.504
916.503
916.502
916.501
916.499
916.498
916.496
916.495
916.493
916.491
916.489
916.486
916.484
916.481
916.478
916.475
916.471
916.467
916.463
916.458
916.453
916.448
916.442
916.435
916.428
916.421
916.413
916.404
916.394
916.383
916.372
916.359
916.346
916.331
916.316
916.299
916.28
916.26
916.239
916.216
916.191
916.164
916.135
916.103
916.069
916.033
915.994
915.952
915.907
915.858
915.806
915.75
915.69
915.626
915.558
915.484
915.405
915.321
915.231
915.135
915.033
914.923
914.807
914.682
914.55
914.409
914.259
914.1
913.931
913.751
913.56
913.357
913.143
912.915
912.675
912.42
912.15
911.865
911.563
911.245
910.91
910.555
910.182
909.788
909.374
908.938
908.479
907.997
907.49
906.958
906.399
905.813
905.198
904.554
903.879
903.172
902.433
901.66
900.851
900.007
899.124
898.203
897.243
896.24
895.196
894.107
892.973
891.793
890.564
889.286
887.957
886.576
885.14
883.649
882.1
880.493
878.825
877.095
875.3
873.439
871.51
869.512
867.441
865.295
863.074
860.773
858.392
855.926
853.374
850.734
848.001
845.173
842.247
839.22
836.087
832.847
829.494
826.024
822.434
818.718
814.873
810.893
806.773
802.507
798.089
793.513
788.773
783.861
778.77
773.492
768.02
762.344
756.454
750.342
743.997
737.407
730.563
723.45
716.095
708.494
700.505
692.195
683.549
674.552
665.187
655.437
645.285
634.714
623.707
612.246
600.314
587.895
574.975
561.538
547.573
533.072
518.029
502.442
486.315
469.658
452.489
434.834
416.729
398.222
379.377
360.269
340.996
321.673
302.443
)
;

boundaryField
{
    fixedWall
    {
        type            fixedValue;
        value           uniform 293;
    }
    outlet
    {
        type            inletOutlet;
        inletValue      uniform 293;
        value           uniform 293;
    }
    defaultFaces
    {
        type            empty;
    }
}


// ************************************************************************* //
