/*--------------------------------*- C++ -*----------------------------------*\
| =========                 |                                                 |
| \\      /  F ield         | OpenFOAM: The Open Source CFD Toolbox           |
|  \\    /   O peration     | Version:  2406                                  |
|   \\  /    A nd           | Website:  www.openfoam.com                      |
|    \\/     M anipulation  |                                                 |
\*---------------------------------------------------------------------------*/
FoamFile
{
    version     2.0;
    format      ascii;
    arch        "LSB;label=32;scalar=64";
    class       volScalarField;
    location    "10.6";
    object      Qdot;
}
// * * * * * * * * * * * * * * * * * * * * * * * * * * * * * * * * * * * * * //

dimensions      [1 -1 -3 0 0 0 0];

internalField   nonuniform List<scalar> 
1000
(
-1.06202e-18
-2.68301e-17
-3.54157e-16
3.80443e-09
9.70652e-09
3.66723e-08
1.43403e-07
4.54213e-07
1.25571e-06
3.08533e-06
6.9061e-06
1.42737e-05
2.74989e-05
4.99041e-05
8.5951e-05
0.000141372
0.000223254
0.000340028
0.000501392
0.000718149
0.00100198
0.00136516
0.00182018
0.00237942
0.00305476
0.00385716
0.00479634
0.00588043
0.00711573
0.00850641
0.0100545
0.0117595
0.0136187
0.0156272
0.0177774
0.0200602
0.0224641
0.0249761
0.027582
0.0302663
0.0330125
0.0358038
0.0386231
0.0414532
0.0442773
0.0470792
0.0498431
0.0525544
0.0551995
0.0577659
0.0602426
0.0626196
0.0648886
0.0670425
0.0690757
0.0709837
0.0727637
0.0744136
0.075933
0.0773221
0.0785823
0.0797158
0.0807257
0.0816155
0.0823895
0.0830525
0.0836095
0.0840659
0.0844274
0.0846996
0.0848886
0.0850002
0.0850401
0.0850143
0.0849284
0.0847879
0.0845981
0.0843642
0.0840911
0.0837834
0.0834456
0.083082
0.0826964
0.0822924
0.0818737
0.0814432
0.081004
0.0805587
0.0801098
0.0796597
0.0792102
0.0787633
0.0783206
0.0778837
0.0774537
0.0770319
0.0766193
0.0762168
0.0758251
0.0754448
0.0750765
0.0747206
0.0743775
0.0740473
0.0737303
0.0734267
0.0731363
0.0728594
0.0725957
0.0723452
0.0721078
0.0718833
0.0716715
0.0714722
0.0712852
0.0711101
0.0709467
0.0707947
0.0706539
0.0705238
0.0704042
0.0702947
0.0701951
0.0701049
0.0700239
0.0699518
0.0698882
0.0698327
0.0697852
0.0697452
0.0697125
0.0696868
0.0696677
0.069655
0.0696485
0.0696477
0.0696526
0.0696627
0.069678
0.069698
0.0697227
0.0697517
0.069785
0.0698221
0.069863
0.0699075
0.0699554
0.0700065
0.0700606
0.0701176
0.0701772
0.0702395
0.0703042
0.0703712
0.0704404
0.0705116
0.0705848
0.0706598
0.0707365
0.0708145
0.0708943
0.0709753
0.0710577
0.0711418
0.0712266
0.071313
0.0714003
0.0714887
0.071578
0.0716682
0.0717592
0.071851
0.0719435
0.0720367
0.0721306
0.072225
0.0723201
0.0724157
0.0725118
0.0726083
0.0727053
0.0728028
0.0729007
0.072999
0.0730976
0.0731962
0.0732956
0.0733952
0.0734952
0.0735954
0.0736958
0.0737966
0.0738975
0.0739987
0.0741002
0.0742018
0.0743037
0.0744058
0.0745081
0.0746106
0.0747133
0.0748162
0.0749192
0.0750225
0.0751259
0.0752295
0.0753333
0.0754373
0.0755414
0.0756457
0.0757502
0.0758548
0.0759597
0.0760646
0.0761697
0.076275
0.0763805
0.0764862
0.076592
0.076698
0.0768041
0.0769104
0.0770169
0.0771236
0.0772304
0.0773374
0.0774446
0.077552
0.0776595
0.0777672
0.0778751
0.0779831
0.0780913
0.0781998
0.0783084
0.0784171
0.0785261
0.0786352
0.0787445
0.078854
0.0789637
0.0790736
0.0791837
0.0792939
0.0794044
0.0795149
0.0796251
0.0797363
0.0798475
0.079959
0.0800707
0.0801826
0.0802946
0.0804069
0.0805193
0.0806319
0.0807448
0.0808578
0.0809711
0.0810845
0.0811982
0.081312
0.0814261
0.0815403
0.0816548
0.0817695
0.0818844
0.0819995
0.0821148
0.0822303
0.082346
0.082462
0.0825782
0.0826945
0.0828111
0.082928
0.083045
0.0831622
0.0832797
0.0833974
0.0835153
0.0836335
0.0837518
0.0838704
0.0839892
0.0841083
0.0842275
0.084347
0.0844667
0.0845867
0.0847068
0.0848273
0.0849479
0.0850688
0.0851899
0.0853112
0.0854328
0.0855547
0.0856767
0.0857989
0.0859207
0.0860435
0.0861666
0.0862898
0.0864134
0.0865371
0.0866612
0.0867854
0.0869099
0.0870347
0.0871597
0.0872849
0.0874104
0.0875362
0.0876622
0.0877885
0.087915
0.0880418
0.0881689
0.0882962
0.0884238
0.0885516
0.0886797
0.0888081
0.0889367
0.0890656
0.0891948
0.0893242
0.0894539
0.0895839
0.0897142
0.0898447
0.0899755
0.0901066
0.0902379
0.0903695
0.0905015
0.0906337
0.0907661
0.0908989
0.0910319
0.0911653
0.0912989
0.0914328
0.091567
0.0917015
0.0918363
0.0919713
0.0921067
0.0922424
0.0923784
0.0925146
0.0926512
0.0927881
0.0929253
0.0930629
0.0932002
0.0933384
0.0934768
0.0936156
0.0937546
0.0938939
0.0940336
0.0941735
0.0943138
0.0944544
0.0945953
0.0947365
0.094878
0.0950199
0.0951621
0.0953046
0.0954474
0.0955905
0.095734
0.0958778
0.0960219
0.0961664
0.0963112
0.0964563
0.0966018
0.0967476
0.0968937
0.0970401
0.0971869
0.0973341
0.0974816
0.0976294
0.0977775
0.097926
0.0980748
0.098224
0.0983736
0.0985234
0.0986736
0.0988242
0.0989751
0.0991264
0.099278
0.0994299
0.0995823
0.0997349
0.0998879
0.100041
0.100195
0.100349
0.100504
0.100658
0.100814
0.100969
0.101125
0.101281
0.101438
0.101595
0.101752
0.10191
0.102068
0.102226
0.102385
0.102544
0.102704
0.102864
0.103024
0.103184
0.103345
0.103507
0.103669
0.103831
0.103993
0.104156
0.104319
0.104483
0.104647
0.104812
0.104976
0.105142
0.105307
0.105473
0.105639
0.105806
0.105973
0.106141
0.106309
0.106477
0.106646
0.106815
0.106984
0.107154
0.107325
0.107495
0.107667
0.107838
0.10801
0.108182
0.108355
0.108528
0.108702
0.108876
0.10905
0.109225
0.1094
0.109576
0.109752
0.109928
0.110105
0.110283
0.11046
0.110639
0.110817
0.110996
0.111176
0.111356
0.111536
0.111717
0.111898
0.11208
0.112262
0.112445
0.112628
0.112811
0.112995
0.113179
0.113364
0.113549
0.113735
0.113921
0.114108
0.114295
0.114483
0.114671
0.114859
0.115048
0.115237
0.115427
0.115618
0.115809
0.116
0.116192
0.116384
0.116577
0.11677
0.116964
0.117158
0.117352
0.117548
0.117743
0.117939
0.118136
0.118333
0.118531
0.118729
0.118928
0.119127
0.119326
0.119526
0.119727
0.119928
0.12013
0.120332
0.120535
0.120738
0.120942
0.121146
0.12135
0.121556
0.121762
0.121968
0.122175
0.122382
0.12259
0.122798
0.123007
0.123217
0.123427
0.123637
0.123848
0.12406
0.124272
0.124485
0.124698
0.124912
0.125126
0.125341
0.125557
0.125773
0.125989
0.126206
0.126424
0.126642
0.126861
0.12708
0.1273
0.127521
0.127742
0.127964
0.128186
0.128409
0.128632
0.128856
0.12908
0.129305
0.129531
0.129757
0.129984
0.130212
0.13044
0.130668
0.130898
0.131127
0.131358
0.131589
0.131821
0.132053
0.132286
0.132519
0.132753
0.132988
0.133223
0.133459
0.133696
0.133933
0.134171
0.134409
0.134648
0.134888
0.135128
0.135369
0.135611
0.135853
0.136096
0.13634
0.136584
0.136829
0.137074
0.13732
0.137567
0.137815
0.138063
0.138312
0.138561
0.138812
0.139062
0.139314
0.139566
0.139819
0.140073
0.140327
0.140582
0.140838
0.141095
0.141352
0.14161
0.141868
0.142127
0.142387
0.142648
0.14291
0.143172
0.143435
0.143698
0.143963
0.144228
0.144493
0.144758
0.145025
0.145293
0.145562
0.145832
0.146102
0.146373
0.146645
0.146918
0.147191
0.147465
0.14774
0.148016
0.148293
0.14857
0.148848
0.149127
0.149407
0.149687
0.149968
0.15025
0.150533
0.150817
0.151101
0.151387
0.151673
0.15196
0.152247
0.152536
0.152825
0.153116
0.153407
0.153699
0.153991
0.154285
0.154579
0.154875
0.155171
0.155468
0.155765
0.156064
0.156364
0.156664
0.156965
0.157267
0.15757
0.157874
0.158179
0.158484
0.158791
0.159098
0.159406
0.159716
0.160026
0.160337
0.160647
0.160958
0.161272
0.161586
0.161902
0.162218
0.162535
0.162853
0.163172
0.163492
0.163813
0.164134
0.164457
0.164781
0.165105
0.165431
0.165757
0.166084
0.166413
0.166742
0.167072
0.167403
0.167736
0.168069
0.168403
0.168738
0.169074
0.169411
0.169749
0.170088
0.170428
0.170769
0.171111
0.171454
0.171798
0.172143
0.172489
0.172836
0.173184
0.173534
0.173884
0.174235
0.174588
0.174941
0.175295
0.175651
0.176008
0.176365
0.176724
0.177084
0.177445
0.177807
0.178171
0.178535
0.1789
0.179267
0.179635
0.180004
0.180374
0.180745
0.181117
0.181491
0.181866
0.182242
0.182619
0.182997
0.183377
0.183757
0.184139
0.184522
0.184904
0.18529
0.185676
0.186065
0.186454
0.186844
0.187236
0.18763
0.188024
0.18842
0.188817
0.189216
0.189614
0.190013
0.190415
0.190819
0.191223
0.191629
0.192036
0.192445
0.192855
0.193266
0.193678
0.194092
0.194508
0.194924
0.195342
0.195761
0.196182
0.196604
0.197027
0.197452
0.197878
0.198306
0.198735
0.199165
0.199596
0.200029
0.200464
0.2009
0.201337
0.201776
0.202216
0.202657
0.2031
0.203544
0.20399
0.204437
0.204885
0.205335
0.205787
0.206239
0.206694
0.207149
0.207606
0.208065
0.208525
0.208986
0.209449
0.209913
0.210379
0.210846
0.211315
0.211785
0.212256
0.212729
0.213204
0.21368
0.214157
0.214636
0.215116
0.215598
0.216082
0.216567
0.217053
0.217541
0.218031
0.218522
0.219015
0.219509
0.220005
0.220503
0.221002
0.221503
0.222006
0.222511
0.223018
0.223526
0.224037
0.22455
0.225065
0.225582
0.226101
0.226623
0.227148
0.227675
0.228205
0.228739
0.229276
0.229816
0.23036
0.230908
0.23146
0.232017
0.232579
0.233146
0.23372
0.234299
0.234885
0.235479
0.236081
0.236691
0.237311
0.237941
0.238582
0.239234
0.2399
0.24058
0.241276
0.241988
0.242717
0.243467
0.244237
0.24503
0.245848
0.246692
0.247565
0.248469
0.249407
0.250381
0.251393
0.252447
0.253546
0.254693
0.255892
0.257147
0.25846
0.259838
0.261283
0.2628
0.264395
0.266072
0.267836
0.269694
0.27165
0.273711
0.275883
0.278171
0.280584
0.283127
0.285807
0.288632
0.291607
0.294741
0.298041
0.301513
0.305165
0.309003
0.313035
0.317266
0.321702
0.326348
0.331209
0.33629
0.341592
0.347118
0.352868
0.35884
0.365032
0.371438
0.378053
0.384864
0.39186
0.399025
0.406339
0.413778
0.421316
0.428918
0.436548
0.444164
0.451717
0.459153
0.466412
0.473428
0.480129
0.486436
0.492264
0.497524
0.502121
0.505956
0.508926
0.510927
0.511854
0.511601
0.510069
0.507161
0.50279
0.496877
0.489358
0.480185
0.469328
0.456781
0.44256
0.426709
0.409301
0.390439
0.370256
0.348913
0.326602
0.303538
0.279961
0.256125
0.232297
0.208748
0.185745
0.163547
0.14239
0.122488
0.104019
0.0871226
0.072049
0.0586676
0.0468559
0.0367403
0.028242
0.0212474
0.0156165
0.0111904
0.00780007
0.00527512
0.0034514
0.00217758
0.00131998
0.000765525
0.000422744
0.00022108
0.000108809
5.00362e-05
2.13195e-05
8.33725e-06
2.95734e-06
9.39105e-07
2.62646e-07
6.36073e-08
1.36194e-08
2.16432e-09
7.99076e-10
-9.97425e-14
-4.1922e-18
-1.81662e-19
0
0
)
;

boundaryField
{
    fixedWall
    {
        type            calculated;
        value           uniform 0;
    }
    outlet
    {
        type            calculated;
        value           uniform 0;
    }
    defaultFaces
    {
        type            empty;
    }
}


// ************************************************************************* //
