/*--------------------------------*- C++ -*----------------------------------*\
| =========                 |                                                 |
| \\      /  F ield         | OpenFOAM: The Open Source CFD Toolbox           |
|  \\    /   O peration     | Version:  2406                                  |
|   \\  /    A nd           | Website:  www.openfoam.com                      |
|    \\/     M anipulation  |                                                 |
\*---------------------------------------------------------------------------*/
FoamFile
{
    version     2.0;
    format      ascii;
    arch        "LSB;label=32;scalar=64";
    class       volScalarField;
    location    "10.6";
    object      T;
}
// * * * * * * * * * * * * * * * * * * * * * * * * * * * * * * * * * * * * * //

dimensions      [0 0 0 1 0 0 0];

internalField   nonuniform List<scalar> 
1000
(
305.482
328.52
349.874
369.812
388.532
406.191
422.912
438.796
453.927
468.375
482.199
495.45
508.174
520.407
532.184
543.535
554.486
565.062
575.283
585.169
594.737
604.004
612.983
621.689
630.133
638.326
646.28
654.003
661.506
668.795
675.88
682.767
689.463
695.976
702.31
708.472
714.467
720.301
725.978
731.503
736.881
742.116
747.211
752.171
757
761.7
766.276
770.731
775.068
779.29
783.4
787.401
791.295
795.086
798.776
802.367
805.862
809.263
812.572
815.793
818.926
821.974
824.939
827.823
830.628
833.356
836.009
838.588
841.095
843.533
845.902
848.204
850.441
852.615
854.727
856.778
858.77
860.705
862.583
864.407
866.177
867.895
869.562
871.18
872.749
874.271
875.747
877.178
878.566
879.911
881.215
882.478
883.702
884.887
886.035
887.147
888.223
889.265
890.274
891.25
892.194
893.107
893.99
894.844
895.67
896.468
897.239
897.985
898.705
899.4
900.071
900.719
901.345
901.949
902.532
903.094
903.636
904.159
904.663
905.149
905.617
906.068
906.502
906.921
907.324
907.712
908.085
908.445
908.79
909.123
909.443
909.75
910.046
910.33
910.603
910.865
911.116
911.358
911.59
911.813
912.027
912.232
912.428
912.617
912.797
912.971
913.136
913.295
913.448
913.593
913.733
913.867
913.994
914.117
914.234
914.345
914.452
914.554
914.651
914.744
914.833
914.918
914.999
915.076
915.15
915.22
915.288
915.352
915.413
915.471
915.526
915.579
915.629
915.677
915.722
915.766
915.807
915.846
915.883
915.918
915.951
915.983
916.013
916.042
916.069
916.095
916.119
916.142
916.164
916.185
916.205
916.223
916.241
916.257
916.273
916.288
916.302
916.315
916.327
916.339
916.35
916.36
916.37
916.38
916.388
916.396
916.404
916.411
916.418
916.424
916.43
916.436
916.441
916.446
916.45
916.454
916.458
916.462
916.465
916.469
916.472
916.474
916.477
916.479
916.481
916.483
916.485
916.487
916.488
916.49
916.491
916.492
916.493
916.494
916.495
916.496
916.496
916.497
916.497
916.498
916.498
916.498
916.499
916.499
916.499
916.499
916.499
916.499
916.499
916.499
916.499
916.499
916.499
916.499
916.499
916.499
916.498
916.498
916.498
916.498
916.498
916.497
916.497
916.497
916.497
916.497
916.496
916.496
916.496
916.496
916.495
916.495
916.495
916.495
916.494
916.494
916.494
916.494
916.494
916.493
916.493
916.493
916.493
916.493
916.493
916.492
916.492
916.492
916.492
916.492
916.492
916.492
916.492
916.492
916.491
916.491
916.491
916.491
916.491
916.491
916.491
916.491
916.491
916.491
916.491
916.491
916.491
916.492
916.492
916.492
916.492
916.492
916.492
916.492
916.492
916.492
916.492
916.493
916.493
916.493
916.493
916.493
916.493
916.494
916.494
916.494
916.494
916.494
916.494
916.495
916.495
916.495
916.495
916.496
916.496
916.496
916.496
916.496
916.497
916.497
916.497
916.497
916.498
916.498
916.498
916.498
916.499
916.499
916.499
916.499
916.5
916.5
916.5
916.5
916.501
916.501
916.501
916.501
916.502
916.502
916.502
916.502
916.503
916.503
916.503
916.503
916.504
916.504
916.504
916.504
916.505
916.505
916.505
916.505
916.505
916.506
916.506
916.506
916.506
916.506
916.507
916.507
916.507
916.507
916.507
916.508
916.508
916.508
916.508
916.508
916.508
916.509
916.509
916.509
916.509
916.509
916.509
916.509
916.51
916.51
916.51
916.51
916.51
916.51
916.51
916.51
916.511
916.511
916.511
916.511
916.511
916.511
916.511
916.511
916.511
916.511
916.511
916.512
916.512
916.512
916.512
916.512
916.512
916.512
916.512
916.512
916.512
916.512
916.512
916.512
916.512
916.512
916.512
916.513
916.513
916.513
916.513
916.513
916.513
916.513
916.513
916.513
916.513
916.513
916.513
916.513
916.513
916.513
916.513
916.513
916.513
916.513
916.513
916.513
916.513
916.514
916.514
916.514
916.514
916.514
916.514
916.514
916.514
916.514
916.514
916.514
916.514
916.514
916.514
916.514
916.514
916.514
916.514
916.514
916.514
916.514
916.514
916.514
916.514
916.514
916.514
916.514
916.514
916.515
916.515
916.515
916.515
916.515
916.515
916.515
916.515
916.515
916.515
916.515
916.515
916.515
916.515
916.515
916.515
916.515
916.515
916.515
916.515
916.515
916.515
916.515
916.515
916.515
916.515
916.515
916.515
916.515
916.515
916.515
916.515
916.515
916.515
916.515
916.515
916.515
916.515
916.515
916.515
916.515
916.515
916.515
916.515
916.515
916.515
916.515
916.515
916.515
916.515
916.515
916.515
916.515
916.515
916.515
916.515
916.515
916.515
916.515
916.515
916.516
916.516
916.516
916.516
916.516
916.516
916.516
916.516
916.516
916.516
916.516
916.516
916.516
916.516
916.516
916.516
916.516
916.516
916.516
916.516
916.516
916.516
916.516
916.516
916.516
916.516
916.516
916.516
916.516
916.516
916.517
916.517
916.517
916.517
916.517
916.517
916.517
916.517
916.517
916.517
916.517
916.517
916.517
916.517
916.517
916.517
916.517
916.517
916.517
916.517
916.517
916.518
916.518
916.518
916.518
916.518
916.518
916.518
916.518
916.518
916.518
916.518
916.518
916.518
916.518
916.518
916.518
916.518
916.518
916.518
916.518
916.518
916.518
916.518
916.518
916.518
916.518
916.518
916.518
916.518
916.518
916.518
916.518
916.518
916.518
916.518
916.518
916.518
916.518
916.518
916.518
916.518
916.518
916.518
916.518
916.518
916.518
916.518
916.518
916.518
916.518
916.518
916.518
916.518
916.518
916.518
916.518
916.518
916.518
916.518
916.518
916.517
916.517
916.517
916.517
916.517
916.517
916.517
916.517
916.517
916.517
916.517
916.517
916.517
916.517
916.517
916.517
916.517
916.517
916.517
916.517
916.517
916.517
916.517
916.517
916.517
916.517
916.517
916.517
916.517
916.517
916.517
916.517
916.517
916.517
916.517
916.517
916.517
916.517
916.517
916.517
916.517
916.517
916.517
916.517
916.518
916.518
916.518
916.518
916.518
916.518
916.518
916.518
916.518
916.518
916.518
916.518
916.518
916.519
916.519
916.519
916.519
916.519
916.519
916.519
916.519
916.519
916.519
916.52
916.52
916.52
916.52
916.52
916.52
916.52
916.52
916.52
916.52
916.52
916.521
916.521
916.521
916.521
916.521
916.521
916.521
916.521
916.521
916.521
916.521
916.521
916.521
916.521
916.521
916.521
916.521
916.521
916.521
916.521
916.521
916.521
916.521
916.521
916.521
916.521
916.521
916.521
916.521
916.521
916.52
916.52
916.52
916.52
916.52
916.52
916.52
916.52
916.519
916.519
916.519
916.519
916.519
916.519
916.518
916.518
916.518
916.518
916.517
916.517
916.517
916.516
916.516
916.516
916.515
916.515
916.515
916.514
916.514
916.513
916.513
916.512
916.512
916.511
916.511
916.51
916.509
916.508
916.508
916.507
916.506
916.505
916.504
916.502
916.501
916.5
916.498
916.497
916.495
916.493
916.491
916.489
916.486
916.484
916.481
916.478
916.474
916.471
916.467
916.463
916.458
916.453
916.448
916.442
916.436
916.429
916.421
916.413
916.405
916.396
916.385
916.375
916.363
916.35
916.336
916.322
916.306
916.289
916.27
916.25
916.229
916.206
916.181
916.155
916.126
916.096
916.063
916.028
915.99
915.949
915.906
915.86
915.81
915.757
915.7
915.64
915.575
915.506
915.432
915.353
915.27
915.181
915.086
914.985
914.877
914.763
914.642
914.513
914.376
914.231
914.077
913.914
913.742
913.559
913.366
913.162
912.946
912.718
912.477
912.223
911.955
911.672
911.374
911.061
910.731
910.384
910.019
909.636
909.233
908.81
908.366
907.901
907.413
906.902
906.366
905.806
905.219
904.606
903.965
903.296
902.596
901.867
901.105
900.311
899.483
898.62
897.722
896.786
895.813
894.8
893.747
892.653
891.516
890.335
889.108
887.835
886.515
885.145
883.725
882.253
880.728
879.147
877.511
875.816
874.063
872.248
870.37
868.427
866.418
864.341
862.194
859.974
857.68
855.31
852.86
850.329
847.715
845.014
842.224
839.343
836.366
833.291
830.115
826.835
823.446
819.945
816.327
812.589
808.727
804.735
800.608
796.342
791.93
787.367
782.648
777.764
772.711
767.48
762.063
756.454
750.644
744.623
738.384
731.915
725.209
718.26
711.123
703.643
695.876
687.809
679.43
670.727
661.684
652.289
642.528
632.385
621.846
610.897
599.524
587.713
575.452
562.729
549.536
535.864
521.709
507.071
491.952
476.359
460.308
443.819
426.92
409.649
392.054
374.196
356.146
337.995
319.848
301.832
)
;

boundaryField
{
    fixedWall
    {
        type            fixedValue;
        value           uniform 293;
    }
    outlet
    {
        type            inletOutlet;
        inletValue      uniform 293;
        value           uniform 293;
    }
    defaultFaces
    {
        type            empty;
    }
}


// ************************************************************************* //
