/*--------------------------------*- C++ -*----------------------------------*\
| =========                 |                                                 |
| \\      /  F ield         | OpenFOAM: The Open Source CFD Toolbox           |
|  \\    /   O peration     | Version:  2406                                  |
|   \\  /    A nd           | Website:  www.openfoam.com                      |
|    \\/     M anipulation  |                                                 |
\*---------------------------------------------------------------------------*/
FoamFile
{
    version     2.0;
    format      ascii;
    arch        "LSB;label=32;scalar=64";
    class       volVectorField;
    location    "10.6";
    object      U;
}
// * * * * * * * * * * * * * * * * * * * * * * * * * * * * * * * * * * * * * //

dimensions      [0 1 -1 0 0 0 0];

internalField   nonuniform List<vector> 
1000
(
(-9.04967e-07 0 0)
(-4.29545e-06 0 0)
(-1.09896e-05 0 0)
(-2.02146e-05 0 0)
(-3.13869e-05 0 0)
(-4.41554e-05 0 0)
(-5.82727e-05 0 0)
(-7.35419e-05 0 0)
(-8.97921e-05 0 0)
(-0.000106884 0 0)
(-0.000124699 0 0)
(-0.000143137 0 0)
(-0.00016211 0 0)
(-0.000181546 0 0)
(-0.000201377 0 0)
(-0.000221548 0 0)
(-0.000242005 0 0)
(-0.000262707 0 0)
(-0.00028361 0 0)
(-0.000304679 0 0)
(-0.000325881 0 0)
(-0.000347187 0 0)
(-0.000368569 0 0)
(-0.000390003 0 0)
(-0.000411465 0 0)
(-0.000432936 0 0)
(-0.000454396 0 0)
(-0.000475827 0 0)
(-0.000497213 0 0)
(-0.000518539 0 0)
(-0.000539791 0 0)
(-0.000560955 0 0)
(-0.00058202 0 0)
(-0.000602974 0 0)
(-0.000623806 0 0)
(-0.000644508 0 0)
(-0.000665068 0 0)
(-0.00068548 0 0)
(-0.000705735 0 0)
(-0.000725826 0 0)
(-0.000745744 0 0)
(-0.000765485 0 0)
(-0.000785042 0 0)
(-0.00080441 0 0)
(-0.000823582 0 0)
(-0.000842554 0 0)
(-0.000861323 0 0)
(-0.000879882 0 0)
(-0.00089823 0 0)
(-0.000916362 0 0)
(-0.000934274 0 0)
(-0.000951965 0 0)
(-0.000969431 0 0)
(-0.00098667 0 0)
(-0.00100368 0 0)
(-0.00102046 0 0)
(-0.001037 0 0)
(-0.00105331 0 0)
(-0.00106939 0 0)
(-0.00108523 0 0)
(-0.00110083 0 0)
(-0.00111619 0 0)
(-0.00113132 0 0)
(-0.0011462 0 0)
(-0.00116084 0 0)
(-0.00117525 0 0)
(-0.00118942 0 0)
(-0.00120334 0 0)
(-0.00121703 0 0)
(-0.00123048 0 0)
(-0.0012437 0 0)
(-0.00125667 0 0)
(-0.00126941 0 0)
(-0.00128192 0 0)
(-0.00129419 0 0)
(-0.00130624 0 0)
(-0.00131805 0 0)
(-0.00132963 0 0)
(-0.00134098 0 0)
(-0.00135211 0 0)
(-0.00136301 0 0)
(-0.00137369 0 0)
(-0.00138415 0 0)
(-0.0013944 0 0)
(-0.00140442 0 0)
(-0.00141423 0 0)
(-0.00142383 0 0)
(-0.00143322 0 0)
(-0.00144241 0 0)
(-0.00145138 0 0)
(-0.00146016 0 0)
(-0.00146873 0 0)
(-0.00147711 0 0)
(-0.00148529 0 0)
(-0.00149327 0 0)
(-0.00150107 0 0)
(-0.00150868 0 0)
(-0.00151611 0 0)
(-0.00152335 0 0)
(-0.00153041 0 0)
(-0.0015373 0 0)
(-0.00154401 0 0)
(-0.00155056 0 0)
(-0.00155693 0 0)
(-0.00156314 0 0)
(-0.00156918 0 0)
(-0.00157507 0 0)
(-0.0015808 0 0)
(-0.00158637 0 0)
(-0.00159179 0 0)
(-0.00159707 0 0)
(-0.00160219 0 0)
(-0.00160718 0 0)
(-0.00161202 0 0)
(-0.00161673 0 0)
(-0.0016213 0 0)
(-0.00162574 0 0)
(-0.00163005 0 0)
(-0.00163423 0 0)
(-0.00163829 0 0)
(-0.00164223 0 0)
(-0.00164605 0 0)
(-0.00164976 0 0)
(-0.00165335 0 0)
(-0.00165683 0 0)
(-0.0016602 0 0)
(-0.00166347 0 0)
(-0.00166663 0 0)
(-0.00166969 0 0)
(-0.00167266 0 0)
(-0.00167552 0 0)
(-0.0016783 0 0)
(-0.00168099 0 0)
(-0.00168358 0 0)
(-0.00168609 0 0)
(-0.00168852 0 0)
(-0.00169086 0 0)
(-0.00169312 0 0)
(-0.00169531 0 0)
(-0.00169742 0 0)
(-0.00169946 0 0)
(-0.00170143 0 0)
(-0.00170332 0 0)
(-0.00170515 0 0)
(-0.00170692 0 0)
(-0.00170862 0 0)
(-0.00171026 0 0)
(-0.00171184 0 0)
(-0.00171337 0 0)
(-0.00171483 0 0)
(-0.00171625 0 0)
(-0.0017176 0 0)
(-0.0017189 0 0)
(-0.00172016 0 0)
(-0.00172137 0 0)
(-0.00172253 0 0)
(-0.00172364 0 0)
(-0.00172471 0 0)
(-0.00172575 0 0)
(-0.00172675 0 0)
(-0.0017277 0 0)
(-0.00172862 0 0)
(-0.00172949 0 0)
(-0.00173033 0 0)
(-0.00173114 0 0)
(-0.00173191 0 0)
(-0.00173265 0 0)
(-0.00173336 0 0)
(-0.00173405 0 0)
(-0.0017347 0 0)
(-0.00173533 0 0)
(-0.00173593 0 0)
(-0.00173651 0 0)
(-0.00173706 0 0)
(-0.00173759 0 0)
(-0.00173809 0 0)
(-0.00173857 0 0)
(-0.00173903 0 0)
(-0.00173947 0 0)
(-0.0017399 0 0)
(-0.0017403 0 0)
(-0.00174068 0 0)
(-0.00174105 0 0)
(-0.0017414 0 0)
(-0.00174174 0 0)
(-0.00174206 0 0)
(-0.00174236 0 0)
(-0.00174265 0 0)
(-0.00174293 0 0)
(-0.00174319 0 0)
(-0.00174344 0 0)
(-0.00174368 0 0)
(-0.00174391 0 0)
(-0.00174413 0 0)
(-0.00174433 0 0)
(-0.00174453 0 0)
(-0.00174472 0 0)
(-0.00174489 0 0)
(-0.00174506 0 0)
(-0.00174523 0 0)
(-0.00174538 0 0)
(-0.00174552 0 0)
(-0.00174566 0 0)
(-0.00174579 0 0)
(-0.00174592 0 0)
(-0.00174603 0 0)
(-0.00174615 0 0)
(-0.00174625 0 0)
(-0.00174635 0 0)
(-0.00174645 0 0)
(-0.00174654 0 0)
(-0.00174662 0 0)
(-0.0017467 0 0)
(-0.00174678 0 0)
(-0.00174685 0 0)
(-0.00174692 0 0)
(-0.00174699 0 0)
(-0.00174705 0 0)
(-0.00174711 0 0)
(-0.00174716 0 0)
(-0.00174721 0 0)
(-0.00174726 0 0)
(-0.00174731 0 0)
(-0.00174735 0 0)
(-0.00174739 0 0)
(-0.00174743 0 0)
(-0.00174746 0 0)
(-0.0017475 0 0)
(-0.00174753 0 0)
(-0.00174756 0 0)
(-0.00174759 0 0)
(-0.00174761 0 0)
(-0.00174764 0 0)
(-0.00174766 0 0)
(-0.00174768 0 0)
(-0.0017477 0 0)
(-0.00174772 0 0)
(-0.00174774 0 0)
(-0.00174776 0 0)
(-0.00174777 0 0)
(-0.00174778 0 0)
(-0.0017478 0 0)
(-0.00174781 0 0)
(-0.00174782 0 0)
(-0.00174783 0 0)
(-0.00174784 0 0)
(-0.00174785 0 0)
(-0.00174786 0 0)
(-0.00174787 0 0)
(-0.00174787 0 0)
(-0.00174788 0 0)
(-0.00174788 0 0)
(-0.00174789 0 0)
(-0.00174789 0 0)
(-0.0017479 0 0)
(-0.0017479 0 0)
(-0.0017479 0 0)
(-0.00174791 0 0)
(-0.00174791 0 0)
(-0.00174791 0 0)
(-0.00174791 0 0)
(-0.00174792 0 0)
(-0.00174791 0 0)
(-0.00174792 0 0)
(-0.00174792 0 0)
(-0.00174792 0 0)
(-0.00174792 0 0)
(-0.00174792 0 0)
(-0.00174792 0 0)
(-0.00174792 0 0)
(-0.00174791 0 0)
(-0.00174792 0 0)
(-0.00174791 0 0)
(-0.00174791 0 0)
(-0.00174791 0 0)
(-0.00174791 0 0)
(-0.00174791 0 0)
(-0.0017479 0 0)
(-0.00174791 0 0)
(-0.0017479 0 0)
(-0.0017479 0 0)
(-0.0017479 0 0)
(-0.0017479 0 0)
(-0.0017479 0 0)
(-0.0017479 0 0)
(-0.00174789 0 0)
(-0.00174789 0 0)
(-0.00174789 0 0)
(-0.00174789 0 0)
(-0.00174788 0 0)
(-0.00174788 0 0)
(-0.00174788 0 0)
(-0.00174787 0 0)
(-0.00174788 0 0)
(-0.00174787 0 0)
(-0.00174787 0 0)
(-0.00174787 0 0)
(-0.00174786 0 0)
(-0.00174786 0 0)
(-0.00174786 0 0)
(-0.00174786 0 0)
(-0.00174786 0 0)
(-0.00174785 0 0)
(-0.00174785 0 0)
(-0.00174785 0 0)
(-0.00174785 0 0)
(-0.00174784 0 0)
(-0.00174784 0 0)
(-0.00174784 0 0)
(-0.00174784 0 0)
(-0.00174784 0 0)
(-0.00174783 0 0)
(-0.00174783 0 0)
(-0.00174783 0 0)
(-0.00174783 0 0)
(-0.00174783 0 0)
(-0.00174782 0 0)
(-0.00174783 0 0)
(-0.00174782 0 0)
(-0.00174782 0 0)
(-0.00174782 0 0)
(-0.00174781 0 0)
(-0.00174782 0 0)
(-0.00174781 0 0)
(-0.00174781 0 0)
(-0.00174781 0 0)
(-0.00174781 0 0)
(-0.00174781 0 0)
(-0.00174781 0 0)
(-0.0017478 0 0)
(-0.0017478 0 0)
(-0.0017478 0 0)
(-0.0017478 0 0)
(-0.0017478 0 0)
(-0.0017478 0 0)
(-0.0017478 0 0)
(-0.0017478 0 0)
(-0.0017478 0 0)
(-0.00174779 0 0)
(-0.0017478 0 0)
(-0.00174779 0 0)
(-0.00174779 0 0)
(-0.00174779 0 0)
(-0.00174779 0 0)
(-0.0017478 0 0)
(-0.00174779 0 0)
(-0.00174779 0 0)
(-0.00174779 0 0)
(-0.00174779 0 0)
(-0.00174779 0 0)
(-0.00174779 0 0)
(-0.00174779 0 0)
(-0.00174779 0 0)
(-0.00174779 0 0)
(-0.00174779 0 0)
(-0.00174779 0 0)
(-0.00174779 0 0)
(-0.00174779 0 0)
(-0.00174779 0 0)
(-0.00174779 0 0)
(-0.00174779 0 0)
(-0.00174779 0 0)
(-0.00174779 0 0)
(-0.00174779 0 0)
(-0.0017478 0 0)
(-0.00174779 0 0)
(-0.0017478 0 0)
(-0.0017478 0 0)
(-0.00174779 0 0)
(-0.0017478 0 0)
(-0.0017478 0 0)
(-0.0017478 0 0)
(-0.0017478 0 0)
(-0.0017478 0 0)
(-0.0017478 0 0)
(-0.0017478 0 0)
(-0.0017478 0 0)
(-0.0017478 0 0)
(-0.0017478 0 0)
(-0.0017478 0 0)
(-0.0017478 0 0)
(-0.0017478 0 0)
(-0.0017478 0 0)
(-0.0017478 0 0)
(-0.00174781 0 0)
(-0.00174781 0 0)
(-0.0017478 0 0)
(-0.00174781 0 0)
(-0.00174781 0 0)
(-0.00174781 0 0)
(-0.00174781 0 0)
(-0.00174781 0 0)
(-0.00174781 0 0)
(-0.00174781 0 0)
(-0.00174781 0 0)
(-0.00174781 0 0)
(-0.00174781 0 0)
(-0.00174781 0 0)
(-0.00174781 0 0)
(-0.00174781 0 0)
(-0.00174781 0 0)
(-0.00174782 0 0)
(-0.00174782 0 0)
(-0.00174782 0 0)
(-0.00174782 0 0)
(-0.00174782 0 0)
(-0.00174782 0 0)
(-0.00174782 0 0)
(-0.00174782 0 0)
(-0.00174782 0 0)
(-0.00174782 0 0)
(-0.00174782 0 0)
(-0.00174782 0 0)
(-0.00174782 0 0)
(-0.00174782 0 0)
(-0.00174782 0 0)
(-0.00174782 0 0)
(-0.00174782 0 0)
(-0.00174782 0 0)
(-0.00174782 0 0)
(-0.00174782 0 0)
(-0.00174782 0 0)
(-0.00174782 0 0)
(-0.00174783 0 0)
(-0.00174782 0 0)
(-0.00174783 0 0)
(-0.00174783 0 0)
(-0.00174782 0 0)
(-0.00174783 0 0)
(-0.00174782 0 0)
(-0.00174783 0 0)
(-0.00174782 0 0)
(-0.00174783 0 0)
(-0.00174783 0 0)
(-0.00174783 0 0)
(-0.00174783 0 0)
(-0.00174782 0 0)
(-0.00174783 0 0)
(-0.00174783 0 0)
(-0.00174783 0 0)
(-0.00174783 0 0)
(-0.00174783 0 0)
(-0.00174782 0 0)
(-0.00174783 0 0)
(-0.00174782 0 0)
(-0.00174783 0 0)
(-0.00174783 0 0)
(-0.00174782 0 0)
(-0.00174783 0 0)
(-0.00174782 0 0)
(-0.00174783 0 0)
(-0.00174782 0 0)
(-0.00174783 0 0)
(-0.00174783 0 0)
(-0.00174782 0 0)
(-0.00174783 0 0)
(-0.00174782 0 0)
(-0.00174783 0 0)
(-0.00174782 0 0)
(-0.00174783 0 0)
(-0.00174782 0 0)
(-0.00174783 0 0)
(-0.00174782 0 0)
(-0.00174782 0 0)
(-0.00174783 0 0)
(-0.00174782 0 0)
(-0.00174783 0 0)
(-0.00174782 0 0)
(-0.00174782 0 0)
(-0.00174782 0 0)
(-0.00174783 0 0)
(-0.00174782 0 0)
(-0.00174782 0 0)
(-0.00174782 0 0)
(-0.00174782 0 0)
(-0.00174783 0 0)
(-0.00174782 0 0)
(-0.00174783 0 0)
(-0.00174782 0 0)
(-0.00174783 0 0)
(-0.00174782 0 0)
(-0.00174782 0 0)
(-0.00174782 0 0)
(-0.00174782 0 0)
(-0.00174783 0 0)
(-0.00174782 0 0)
(-0.00174783 0 0)
(-0.00174782 0 0)
(-0.00174782 0 0)
(-0.00174782 0 0)
(-0.00174782 0 0)
(-0.00174783 0 0)
(-0.00174782 0 0)
(-0.00174783 0 0)
(-0.00174782 0 0)
(-0.00174782 0 0)
(-0.00174782 0 0)
(-0.00174782 0 0)
(-0.00174782 0 0)
(-0.00174782 0 0)
(-0.00174782 0 0)
(-0.00174782 0 0)
(-0.00174782 0 0)
(-0.00174782 0 0)
(-0.00174782 0 0)
(-0.00174782 0 0)
(-0.00174782 0 0)
(-0.00174782 0 0)
(-0.00174782 0 0)
(-0.00174782 0 0)
(-0.00174782 0 0)
(-0.00174782 0 0)
(-0.00174782 0 0)
(-0.00174782 0 0)
(-0.00174782 0 0)
(-0.00174782 0 0)
(-0.00174782 0 0)
(-0.00174782 0 0)
(-0.00174782 0 0)
(-0.00174782 0 0)
(-0.00174782 0 0)
(-0.00174782 0 0)
(-0.00174782 0 0)
(-0.00174782 0 0)
(-0.00174782 0 0)
(-0.00174782 0 0)
(-0.00174782 0 0)
(-0.00174782 0 0)
(-0.00174782 0 0)
(-0.00174782 0 0)
(-0.00174782 0 0)
(-0.00174782 0 0)
(-0.00174782 0 0)
(-0.00174782 0 0)
(-0.00174782 0 0)
(-0.00174782 0 0)
(-0.00174782 0 0)
(-0.00174782 0 0)
(-0.00174782 0 0)
(-0.00174782 0 0)
(-0.00174782 0 0)
(-0.00174782 0 0)
(-0.00174782 0 0)
(-0.00174782 0 0)
(-0.00174782 0 0)
(-0.00174782 0 0)
(-0.00174782 0 0)
(-0.00174781 0 0)
(-0.00174782 0 0)
(-0.00174781 0 0)
(-0.00174782 0 0)
(-0.00174781 0 0)
(-0.00174781 0 0)
(-0.00174781 0 0)
(-0.00174781 0 0)
(-0.00174781 0 0)
(-0.00174781 0 0)
(-0.00174781 0 0)
(-0.00174781 0 0)
(-0.00174781 0 0)
(-0.00174781 0 0)
(-0.00174781 0 0)
(-0.00174781 0 0)
(-0.00174781 0 0)
(-0.00174781 0 0)
(-0.00174781 0 0)
(-0.00174781 0 0)
(-0.00174781 0 0)
(-0.00174781 0 0)
(-0.0017478 0 0)
(-0.00174781 0 0)
(-0.0017478 0 0)
(-0.00174781 0 0)
(-0.0017478 0 0)
(-0.00174781 0 0)
(-0.0017478 0 0)
(-0.0017478 0 0)
(-0.0017478 0 0)
(-0.0017478 0 0)
(-0.0017478 0 0)
(-0.0017478 0 0)
(-0.0017478 0 0)
(-0.0017478 0 0)
(-0.0017478 0 0)
(-0.0017478 0 0)
(-0.0017478 0 0)
(-0.0017478 0 0)
(-0.0017478 0 0)
(-0.0017478 0 0)
(-0.0017478 0 0)
(-0.0017478 0 0)
(-0.0017478 0 0)
(-0.0017478 0 0)
(-0.0017478 0 0)
(-0.0017478 0 0)
(-0.0017478 0 0)
(-0.0017478 0 0)
(-0.0017478 0 0)
(-0.0017478 0 0)
(-0.0017478 0 0)
(-0.0017478 0 0)
(-0.0017478 0 0)
(-0.0017478 0 0)
(-0.0017478 0 0)
(-0.0017478 0 0)
(-0.0017478 0 0)
(-0.0017478 0 0)
(-0.0017478 0 0)
(-0.0017478 0 0)
(-0.0017478 0 0)
(-0.0017478 0 0)
(-0.0017478 0 0)
(-0.0017478 0 0)
(-0.0017478 0 0)
(-0.0017478 0 0)
(-0.0017478 0 0)
(-0.0017478 0 0)
(-0.0017478 0 0)
(-0.0017478 0 0)
(-0.0017478 0 0)
(-0.0017478 0 0)
(-0.0017478 0 0)
(-0.00174781 0 0)
(-0.0017478 0 0)
(-0.0017478 0 0)
(-0.00174781 0 0)
(-0.0017478 0 0)
(-0.00174781 0 0)
(-0.00174781 0 0)
(-0.00174781 0 0)
(-0.00174781 0 0)
(-0.00174781 0 0)
(-0.00174781 0 0)
(-0.00174781 0 0)
(-0.00174781 0 0)
(-0.00174781 0 0)
(-0.00174781 0 0)
(-0.00174781 0 0)
(-0.00174781 0 0)
(-0.00174781 0 0)
(-0.00174781 0 0)
(-0.00174781 0 0)
(-0.00174781 0 0)
(-0.00174781 0 0)
(-0.00174781 0 0)
(-0.00174781 0 0)
(-0.00174781 0 0)
(-0.00174781 0 0)
(-0.00174781 0 0)
(-0.00174781 0 0)
(-0.00174781 0 0)
(-0.0017478 0 0)
(-0.00174781 0 0)
(-0.0017478 0 0)
(-0.00174781 0 0)
(-0.0017478 0 0)
(-0.0017478 0 0)
(-0.00174781 0 0)
(-0.0017478 0 0)
(-0.0017478 0 0)
(-0.0017478 0 0)
(-0.0017478 0 0)
(-0.0017478 0 0)
(-0.0017478 0 0)
(-0.0017478 0 0)
(-0.0017478 0 0)
(-0.0017478 0 0)
(-0.0017478 0 0)
(-0.0017478 0 0)
(-0.0017478 0 0)
(-0.0017478 0 0)
(-0.0017478 0 0)
(-0.00174779 0 0)
(-0.0017478 0 0)
(-0.0017478 0 0)
(-0.00174779 0 0)
(-0.0017478 0 0)
(-0.00174779 0 0)
(-0.00174779 0 0)
(-0.00174779 0 0)
(-0.00174779 0 0)
(-0.00174779 0 0)
(-0.00174778 0 0)
(-0.00174779 0 0)
(-0.00174778 0 0)
(-0.00174779 0 0)
(-0.00174778 0 0)
(-0.00174778 0 0)
(-0.00174778 0 0)
(-0.00174778 0 0)
(-0.00174778 0 0)
(-0.00174778 0 0)
(-0.00174778 0 0)
(-0.00174778 0 0)
(-0.00174777 0 0)
(-0.00174778 0 0)
(-0.00174777 0 0)
(-0.00174777 0 0)
(-0.00174777 0 0)
(-0.00174777 0 0)
(-0.00174777 0 0)
(-0.00174777 0 0)
(-0.00174777 0 0)
(-0.00174776 0 0)
(-0.00174777 0 0)
(-0.00174776 0 0)
(-0.00174776 0 0)
(-0.00174776 0 0)
(-0.00174776 0 0)
(-0.00174776 0 0)
(-0.00174776 0 0)
(-0.00174776 0 0)
(-0.00174776 0 0)
(-0.00174776 0 0)
(-0.00174776 0 0)
(-0.00174776 0 0)
(-0.00174776 0 0)
(-0.00174776 0 0)
(-0.00174776 0 0)
(-0.00174775 0 0)
(-0.00174776 0 0)
(-0.00174776 0 0)
(-0.00174775 0 0)
(-0.00174776 0 0)
(-0.00174776 0 0)
(-0.00174776 0 0)
(-0.00174776 0 0)
(-0.00174776 0 0)
(-0.00174776 0 0)
(-0.00174776 0 0)
(-0.00174776 0 0)
(-0.00174776 0 0)
(-0.00174776 0 0)
(-0.00174776 0 0)
(-0.00174776 0 0)
(-0.00174776 0 0)
(-0.00174776 0 0)
(-0.00174776 0 0)
(-0.00174776 0 0)
(-0.00174776 0 0)
(-0.00174777 0 0)
(-0.00174776 0 0)
(-0.00174777 0 0)
(-0.00174777 0 0)
(-0.00174777 0 0)
(-0.00174777 0 0)
(-0.00174777 0 0)
(-0.00174777 0 0)
(-0.00174777 0 0)
(-0.00174777 0 0)
(-0.00174778 0 0)
(-0.00174778 0 0)
(-0.00174778 0 0)
(-0.00174778 0 0)
(-0.00174778 0 0)
(-0.00174778 0 0)
(-0.00174778 0 0)
(-0.00174778 0 0)
(-0.00174778 0 0)
(-0.00174779 0 0)
(-0.00174779 0 0)
(-0.00174779 0 0)
(-0.00174779 0 0)
(-0.00174779 0 0)
(-0.00174779 0 0)
(-0.0017478 0 0)
(-0.0017478 0 0)
(-0.0017478 0 0)
(-0.0017478 0 0)
(-0.0017478 0 0)
(-0.0017478 0 0)
(-0.00174781 0 0)
(-0.00174781 0 0)
(-0.00174781 0 0)
(-0.00174781 0 0)
(-0.00174781 0 0)
(-0.00174782 0 0)
(-0.00174782 0 0)
(-0.00174782 0 0)
(-0.00174782 0 0)
(-0.00174783 0 0)
(-0.00174783 0 0)
(-0.00174783 0 0)
(-0.00174783 0 0)
(-0.00174784 0 0)
(-0.00174784 0 0)
(-0.00174785 0 0)
(-0.00174785 0 0)
(-0.00174786 0 0)
(-0.00174786 0 0)
(-0.00174787 0 0)
(-0.00174787 0 0)
(-0.00174788 0 0)
(-0.00174789 0 0)
(-0.00174789 0 0)
(-0.0017479 0 0)
(-0.00174791 0 0)
(-0.00174792 0 0)
(-0.00174793 0 0)
(-0.00174795 0 0)
(-0.00174796 0 0)
(-0.00174798 0 0)
(-0.00174799 0 0)
(-0.00174801 0 0)
(-0.00174803 0 0)
(-0.00174805 0 0)
(-0.00174807 0 0)
(-0.0017481 0 0)
(-0.00174813 0 0)
(-0.00174816 0 0)
(-0.00174819 0 0)
(-0.00174823 0 0)
(-0.00174826 0 0)
(-0.00174831 0 0)
(-0.00174835 0 0)
(-0.0017484 0 0)
(-0.00174846 0 0)
(-0.00174852 0 0)
(-0.00174858 0 0)
(-0.00174865 0 0)
(-0.00174873 0 0)
(-0.00174881 0 0)
(-0.0017489 0 0)
(-0.001749 0 0)
(-0.0017491 0 0)
(-0.00174921 0 0)
(-0.00174933 0 0)
(-0.00174947 0 0)
(-0.00174961 0 0)
(-0.00174976 0 0)
(-0.00174993 0 0)
(-0.00175011 0 0)
(-0.0017503 0 0)
(-0.00175051 0 0)
(-0.00175073 0 0)
(-0.00175097 0 0)
(-0.00175123 0 0)
(-0.00175151 0 0)
(-0.00175181 0 0)
(-0.00175213 0 0)
(-0.00175247 0 0)
(-0.00175284 0 0)
(-0.00175324 0 0)
(-0.00175366 0 0)
(-0.00175412 0 0)
(-0.00175461 0 0)
(-0.00175513 0 0)
(-0.00175568 0 0)
(-0.00175628 0 0)
(-0.00175691 0 0)
(-0.00175759 0 0)
(-0.00175832 0 0)
(-0.00175909 0 0)
(-0.00175992 0 0)
(-0.00176079 0 0)
(-0.00176173 0 0)
(-0.00176272 0 0)
(-0.00176378 0 0)
(-0.00176491 0 0)
(-0.00176611 0 0)
(-0.00176738 0 0)
(-0.00176873 0 0)
(-0.00177016 0 0)
(-0.00177168 0 0)
(-0.00177329 0 0)
(-0.00177499 0 0)
(-0.0017768 0 0)
(-0.00177871 0 0)
(-0.00178073 0 0)
(-0.00178286 0 0)
(-0.00178512 0 0)
(-0.0017875 0 0)
(-0.00179002 0 0)
(-0.00179267 0 0)
(-0.00179546 0 0)
(-0.00179841 0 0)
(-0.00180151 0 0)
(-0.00180478 0 0)
(-0.00180822 0 0)
(-0.00181183 0 0)
(-0.00181562 0 0)
(-0.00181961 0 0)
(-0.00182379 0 0)
(-0.00182818 0 0)
(-0.00183278 0 0)
(-0.0018376 0 0)
(-0.00184265 0 0)
(-0.00184794 0 0)
(-0.00185347 0 0)
(-0.00185925 0 0)
(-0.00186529 0 0)
(-0.00187159 0 0)
(-0.00187818 0 0)
(-0.00188504 0 0)
(-0.0018922 0 0)
(-0.00189966 0 0)
(-0.00190743 0 0)
(-0.00191551 0 0)
(-0.00192391 0 0)
(-0.00193265 0 0)
(-0.00194173 0 0)
(-0.00195116 0 0)
(-0.00196094 0 0)
(-0.00197108 0 0)
(-0.00198159 0 0)
(-0.00199248 0 0)
(-0.00200375 0 0)
(-0.00201541 0 0)
(-0.00202747 0 0)
(-0.00203993 0 0)
(-0.00205279 0 0)
(-0.00206607 0 0)
(-0.00207976 0 0)
(-0.00209387 0 0)
(-0.00210841 0 0)
(-0.00212337 0 0)
(-0.00213877 0 0)
(-0.00215459 0 0)
(-0.00217085 0 0)
(-0.00218754 0 0)
(-0.00220467 0 0)
(-0.00222223 0 0)
(-0.00224022 0 0)
(-0.00225864 0 0)
(-0.00227748 0 0)
(-0.00229675 0 0)
(-0.00231644 0 0)
(-0.00233653 0 0)
(-0.00235703 0 0)
(-0.00237793 0 0)
(-0.00239921 0 0)
(-0.00242087 0 0)
(-0.0024429 0 0)
(-0.00246527 0 0)
(-0.00248799 0 0)
(-0.00251103 0 0)
(-0.00253438 0 0)
(-0.00255801 0 0)
(-0.00258192 0 0)
(-0.00260607 0 0)
(-0.00263045 0 0)
(-0.00265502 0 0)
(-0.00267978 0 0)
(-0.00270468 0 0)
(-0.0027297 0 0)
(-0.00275481 0 0)
(-0.00277998 0 0)
(-0.00280516 0 0)
(-0.00283033 0 0)
(-0.00285544 0 0)
(-0.00288045 0 0)
(-0.00290532 0 0)
(-0.00293001 0 0)
(-0.00295446 0 0)
(-0.00297863 0 0)
(-0.00300246 0 0)
(-0.0030259 0 0)
(-0.00304888 0 0)
(-0.00307135 0 0)
(-0.00309324 0 0)
(-0.00311448 0 0)
(-0.00313499 0 0)
(-0.00315469 0 0)
(-0.00317348 0 0)
(-0.00319126 0 0)
(-0.00320793 0 0)
(-0.00322332 0 0)
(-0.00323703 0 0)
(-0.00324912 0 0)
(-0.00326085 0 0)
(-0.00327208 0 0)
(-0.00328134 0 0)
(-0.00328828 0 0)
(-0.00329314 0 0)
(-0.00329574 0 0)
(-0.00329606 0 0)
(-0.00329394 0 0)
(-0.00328918 0 0)
(-0.00328169 0 0)
(-0.0032712 0 0)
(-0.00325755 0 0)
(-0.0032405 0 0)
(-0.00321984 0 0)
(-0.0031953 0 0)
(-0.00316665 0 0)
(-0.0031336 0 0)
(-0.00309588 0 0)
(-0.0030532 0 0)
(-0.00300527 0 0)
(-0.00295178 0 0)
(-0.00289244 0 0)
(-0.00282695 0 0)
(-0.00275501 0 0)
(-0.00267634 0 0)
(-0.00259084 0 0)
(-0.00249871 0 0)
(-0.00239979 0 0)
(-0.00228971 0 0)
(-0.0021589 0 0)
(-0.0020286 0 0)
)
;

boundaryField
{
    fixedWall
    {
        type            fixedValue;
        value           uniform (0 0 0);
    }
    outlet
    {
        type            pressureInletOutletVelocity;
        value           uniform (-0.0020286 0 0);
    }
    defaultFaces
    {
        type            empty;
    }
}


// ************************************************************************* //
