/*--------------------------------*- C++ -*----------------------------------*\
| =========                 |                                                 |
| \\      /  F ield         | OpenFOAM: The Open Source CFD Toolbox           |
|  \\    /   O peration     | Version:  2406                                  |
|   \\  /    A nd           | Website:  www.openfoam.com                      |
|    \\/     M anipulation  |                                                 |
\*---------------------------------------------------------------------------*/
FoamFile
{
    version     2.0;
    format      ascii;
    arch        "LSB;label=32;scalar=64";
    class       volScalarField;
    location    "13.7";
    object      O2;
}
// * * * * * * * * * * * * * * * * * * * * * * * * * * * * * * * * * * * * * //

dimensions      [0 0 0 0 0 0 0];

internalField   nonuniform List<scalar> 
1000
(
1.01582e-06
1.01442e-06
1.01186e-06
1.0083e-06
1.00387e-06
9.98685e-07
9.92824e-07
9.86361e-07
9.79357e-07
9.71864e-07
9.63928e-07
9.55589e-07
9.46885e-07
9.37846e-07
9.28503e-07
9.18882e-07
9.09008e-07
8.98902e-07
8.88588e-07
8.78082e-07
8.67404e-07
8.56572e-07
8.45599e-07
8.34503e-07
8.23298e-07
8.11996e-07
8.00611e-07
7.89156e-07
7.77642e-07
7.66081e-07
7.54485e-07
7.42864e-07
7.31228e-07
7.19587e-07
7.07952e-07
6.96332e-07
6.84737e-07
6.73175e-07
6.61655e-07
6.50187e-07
6.38778e-07
6.27436e-07
6.1617e-07
6.04987e-07
5.93895e-07
5.82901e-07
5.72012e-07
5.61233e-07
5.50573e-07
5.40036e-07
5.29628e-07
5.19355e-07
5.09222e-07
4.99233e-07
4.89394e-07
4.79707e-07
4.70177e-07
4.60806e-07
4.51599e-07
4.42558e-07
4.33684e-07
4.24981e-07
4.1645e-07
4.08091e-07
3.99907e-07
3.91898e-07
3.84065e-07
3.76407e-07
3.68924e-07
3.61617e-07
3.54485e-07
3.47526e-07
3.40741e-07
3.34127e-07
3.27683e-07
3.21408e-07
3.15299e-07
3.09356e-07
3.03575e-07
2.97955e-07
2.92493e-07
2.87187e-07
2.82034e-07
2.77033e-07
2.72179e-07
2.67471e-07
2.62905e-07
2.58479e-07
2.5419e-07
2.50035e-07
2.46011e-07
2.42115e-07
2.38344e-07
2.34696e-07
2.31167e-07
2.27754e-07
2.24455e-07
2.21266e-07
2.18185e-07
2.15209e-07
2.12335e-07
2.09561e-07
2.06883e-07
2.04299e-07
2.01806e-07
1.99401e-07
1.97083e-07
1.94848e-07
1.92694e-07
1.90618e-07
1.88619e-07
1.86694e-07
1.8484e-07
1.83056e-07
1.81339e-07
1.79686e-07
1.78097e-07
1.76569e-07
1.75099e-07
1.73687e-07
1.7233e-07
1.71026e-07
1.69773e-07
1.68571e-07
1.67416e-07
1.66308e-07
1.65245e-07
1.64225e-07
1.63247e-07
1.6231e-07
1.61411e-07
1.6055e-07
1.59726e-07
1.58936e-07
1.5818e-07
1.57456e-07
1.56764e-07
1.56102e-07
1.5547e-07
1.54865e-07
1.54287e-07
1.53736e-07
1.53209e-07
1.52707e-07
1.52228e-07
1.51771e-07
1.51336e-07
1.50921e-07
1.50527e-07
1.50151e-07
1.49794e-07
1.49455e-07
1.49133e-07
1.48828e-07
1.48538e-07
1.48263e-07
1.48003e-07
1.47757e-07
1.47524e-07
1.47304e-07
1.47097e-07
1.46901e-07
1.46717e-07
1.46544e-07
1.46382e-07
1.4623e-07
1.46087e-07
1.45954e-07
1.4583e-07
1.45714e-07
1.45607e-07
1.45508e-07
1.45416e-07
1.45331e-07
1.45254e-07
1.45183e-07
1.45119e-07
1.4506e-07
1.45008e-07
1.44961e-07
1.4492e-07
1.44884e-07
1.44853e-07
1.44827e-07
1.44805e-07
1.44787e-07
1.44774e-07
1.44765e-07
1.4476e-07
1.44758e-07
1.4476e-07
1.44765e-07
1.44774e-07
1.44785e-07
1.44799e-07
1.44817e-07
1.44837e-07
1.44859e-07
1.44884e-07
1.44912e-07
1.44942e-07
1.44973e-07
1.45007e-07
1.45043e-07
1.45081e-07
1.45121e-07
1.45162e-07
1.45205e-07
1.45249e-07
1.45296e-07
1.45343e-07
1.45392e-07
1.45442e-07
1.45494e-07
1.45546e-07
1.456e-07
1.45655e-07
1.45711e-07
1.45768e-07
1.45826e-07
1.45885e-07
1.45945e-07
1.46005e-07
1.46066e-07
1.46128e-07
1.46191e-07
1.46255e-07
1.46319e-07
1.46384e-07
1.46449e-07
1.46515e-07
1.46582e-07
1.46649e-07
1.46716e-07
1.46784e-07
1.46853e-07
1.46922e-07
1.46991e-07
1.47061e-07
1.47131e-07
1.47202e-07
1.47273e-07
1.47344e-07
1.47415e-07
1.47487e-07
1.47559e-07
1.47632e-07
1.47704e-07
1.47777e-07
1.4785e-07
1.47924e-07
1.47998e-07
1.48071e-07
1.48145e-07
1.4822e-07
1.48294e-07
1.48369e-07
1.48444e-07
1.48519e-07
1.48594e-07
1.48669e-07
1.48745e-07
1.4882e-07
1.48896e-07
1.48972e-07
1.49048e-07
1.49124e-07
1.492e-07
1.49277e-07
1.49353e-07
1.4943e-07
1.49507e-07
1.49584e-07
1.49661e-07
1.49738e-07
1.49815e-07
1.49892e-07
1.49969e-07
1.50047e-07
1.50124e-07
1.50202e-07
1.5028e-07
1.50357e-07
1.50435e-07
1.50513e-07
1.50591e-07
1.50669e-07
1.50748e-07
1.50826e-07
1.50904e-07
1.50983e-07
1.51061e-07
1.5114e-07
1.51218e-07
1.51297e-07
1.51376e-07
1.51455e-07
1.51534e-07
1.51613e-07
1.51692e-07
1.51771e-07
1.5185e-07
1.51929e-07
1.52009e-07
1.52088e-07
1.52168e-07
1.52247e-07
1.52327e-07
1.52407e-07
1.52486e-07
1.52566e-07
1.52646e-07
1.52726e-07
1.52806e-07
1.52886e-07
1.52967e-07
1.53047e-07
1.53127e-07
1.53208e-07
1.53288e-07
1.53369e-07
1.53449e-07
1.5353e-07
1.53611e-07
1.53692e-07
1.53773e-07
1.53853e-07
1.53935e-07
1.54016e-07
1.54097e-07
1.54179e-07
1.5426e-07
1.54341e-07
1.54423e-07
1.54505e-07
1.54586e-07
1.54668e-07
1.5475e-07
1.54832e-07
1.54914e-07
1.54996e-07
1.55078e-07
1.5516e-07
1.55243e-07
1.55325e-07
1.55408e-07
1.5549e-07
1.55573e-07
1.55656e-07
1.55739e-07
1.55822e-07
1.55905e-07
1.55988e-07
1.56071e-07
1.56154e-07
1.56238e-07
1.56321e-07
1.56405e-07
1.56488e-07
1.56572e-07
1.56656e-07
1.5674e-07
1.56824e-07
1.56908e-07
1.56992e-07
1.57076e-07
1.57161e-07
1.57245e-07
1.5733e-07
1.57414e-07
1.57499e-07
1.57584e-07
1.57669e-07
1.57754e-07
1.57839e-07
1.57924e-07
1.58009e-07
1.58095e-07
1.5818e-07
1.58266e-07
1.58352e-07
1.58437e-07
1.58523e-07
1.58609e-07
1.58695e-07
1.58781e-07
1.58868e-07
1.58954e-07
1.59041e-07
1.59127e-07
1.59214e-07
1.593e-07
1.59387e-07
1.59474e-07
1.59561e-07
1.59648e-07
1.59736e-07
1.59823e-07
1.5991e-07
1.59998e-07
1.60086e-07
1.60173e-07
1.60261e-07
1.60349e-07
1.60437e-07
1.60525e-07
1.60614e-07
1.60702e-07
1.6079e-07
1.60879e-07
1.60967e-07
1.61056e-07
1.61145e-07
1.61234e-07
1.61323e-07
1.61412e-07
1.61501e-07
1.6159e-07
1.6168e-07
1.61769e-07
1.61859e-07
1.61949e-07
1.62039e-07
1.62129e-07
1.62219e-07
1.62309e-07
1.62399e-07
1.62489e-07
1.6258e-07
1.6267e-07
1.62761e-07
1.62852e-07
1.62943e-07
1.63034e-07
1.63125e-07
1.63216e-07
1.63307e-07
1.63399e-07
1.6349e-07
1.63582e-07
1.63673e-07
1.63765e-07
1.63857e-07
1.63949e-07
1.64041e-07
1.64133e-07
1.64226e-07
1.64318e-07
1.64411e-07
1.64503e-07
1.64596e-07
1.64689e-07
1.64782e-07
1.64875e-07
1.64968e-07
1.65061e-07
1.65155e-07
1.65248e-07
1.65342e-07
1.65435e-07
1.65529e-07
1.65623e-07
1.65717e-07
1.65811e-07
1.65905e-07
1.66e-07
1.66094e-07
1.66189e-07
1.66283e-07
1.66378e-07
1.66473e-07
1.66568e-07
1.66663e-07
1.66758e-07
1.66854e-07
1.66949e-07
1.67045e-07
1.6714e-07
1.67236e-07
1.67332e-07
1.67428e-07
1.67524e-07
1.6762e-07
1.67716e-07
1.67813e-07
1.67909e-07
1.68006e-07
1.68103e-07
1.682e-07
1.68297e-07
1.68394e-07
1.68491e-07
1.68588e-07
1.68686e-07
1.68783e-07
1.68881e-07
1.68979e-07
1.69076e-07
1.69174e-07
1.69273e-07
1.69371e-07
1.69469e-07
1.69568e-07
1.69666e-07
1.69765e-07
1.69864e-07
1.69963e-07
1.70062e-07
1.70161e-07
1.7026e-07
1.70359e-07
1.70459e-07
1.70558e-07
1.70658e-07
1.70758e-07
1.70858e-07
1.70958e-07
1.71058e-07
1.71159e-07
1.71259e-07
1.7136e-07
1.7146e-07
1.71561e-07
1.71662e-07
1.71763e-07
1.71864e-07
1.71965e-07
1.72067e-07
1.72168e-07
1.7227e-07
1.72371e-07
1.72473e-07
1.72575e-07
1.72677e-07
1.72779e-07
1.72882e-07
1.72984e-07
1.73087e-07
1.73189e-07
1.73292e-07
1.73395e-07
1.73498e-07
1.73601e-07
1.73705e-07
1.73808e-07
1.73912e-07
1.74015e-07
1.74119e-07
1.74223e-07
1.74327e-07
1.74431e-07
1.74535e-07
1.7464e-07
1.74744e-07
1.74849e-07
1.74954e-07
1.75059e-07
1.75164e-07
1.75269e-07
1.75374e-07
1.75479e-07
1.75585e-07
1.75691e-07
1.75796e-07
1.75902e-07
1.76008e-07
1.76115e-07
1.76221e-07
1.76327e-07
1.76434e-07
1.7654e-07
1.76647e-07
1.76754e-07
1.76861e-07
1.76968e-07
1.77076e-07
1.77183e-07
1.77291e-07
1.77398e-07
1.77506e-07
1.77614e-07
1.77722e-07
1.7783e-07
1.77939e-07
1.78047e-07
1.78156e-07
1.78265e-07
1.78374e-07
1.78483e-07
1.78592e-07
1.78701e-07
1.7881e-07
1.7892e-07
1.7903e-07
1.7914e-07
1.7925e-07
1.7936e-07
1.7947e-07
1.7958e-07
1.79691e-07
1.79801e-07
1.79912e-07
1.80023e-07
1.80134e-07
1.80245e-07
1.80357e-07
1.80468e-07
1.8058e-07
1.80692e-07
1.80804e-07
1.80916e-07
1.81028e-07
1.8114e-07
1.81253e-07
1.81365e-07
1.81478e-07
1.81591e-07
1.81704e-07
1.81817e-07
1.81931e-07
1.82044e-07
1.82158e-07
1.82271e-07
1.82385e-07
1.82499e-07
1.82613e-07
1.82728e-07
1.82842e-07
1.82957e-07
1.83072e-07
1.83187e-07
1.83302e-07
1.83417e-07
1.83532e-07
1.83648e-07
1.83763e-07
1.83879e-07
1.83995e-07
1.84111e-07
1.84227e-07
1.84344e-07
1.8446e-07
1.84577e-07
1.84694e-07
1.84811e-07
1.84928e-07
1.85045e-07
1.85162e-07
1.8528e-07
1.85398e-07
1.85516e-07
1.85634e-07
1.85752e-07
1.8587e-07
1.85989e-07
1.86107e-07
1.86226e-07
1.86345e-07
1.86464e-07
1.86583e-07
1.86702e-07
1.86822e-07
1.86942e-07
1.87061e-07
1.87181e-07
1.87301e-07
1.87422e-07
1.87542e-07
1.87663e-07
1.87783e-07
1.87904e-07
1.88025e-07
1.88147e-07
1.88268e-07
1.88389e-07
1.88511e-07
1.88633e-07
1.88755e-07
1.88877e-07
1.88999e-07
1.89122e-07
1.89244e-07
1.89366e-07
1.89489e-07
1.89612e-07
1.89735e-07
1.89859e-07
1.89982e-07
1.90106e-07
1.9023e-07
1.90354e-07
1.90478e-07
1.90602e-07
1.90727e-07
1.90851e-07
1.90976e-07
1.91101e-07
1.91226e-07
1.91351e-07
1.91477e-07
1.91603e-07
1.91728e-07
1.91853e-07
1.91979e-07
1.92106e-07
1.92232e-07
1.92359e-07
1.92485e-07
1.92612e-07
1.92739e-07
1.92866e-07
1.92994e-07
1.93121e-07
1.93249e-07
1.93377e-07
1.93505e-07
1.93633e-07
1.93762e-07
1.93891e-07
1.94019e-07
1.94148e-07
1.94278e-07
1.94407e-07
1.94536e-07
1.94666e-07
1.94796e-07
1.94926e-07
1.95057e-07
1.95187e-07
1.95318e-07
1.95449e-07
1.9558e-07
1.95711e-07
1.95843e-07
1.95974e-07
1.96106e-07
1.96238e-07
1.96371e-07
1.96503e-07
1.96636e-07
1.96769e-07
1.96903e-07
1.97036e-07
1.9717e-07
1.97304e-07
1.97438e-07
1.97573e-07
1.97707e-07
1.97842e-07
1.97978e-07
1.98113e-07
1.98249e-07
1.98385e-07
1.98522e-07
1.98659e-07
1.98796e-07
1.98933e-07
1.99071e-07
1.99209e-07
1.99348e-07
1.99487e-07
1.99626e-07
1.99766e-07
1.99906e-07
2.00047e-07
2.00188e-07
2.00329e-07
2.00471e-07
2.00614e-07
2.00757e-07
2.00901e-07
2.01045e-07
2.0119e-07
2.01336e-07
2.01482e-07
2.01629e-07
2.01777e-07
2.01926e-07
2.02075e-07
2.02226e-07
2.02377e-07
2.02529e-07
2.02683e-07
2.02837e-07
2.02993e-07
2.0315e-07
2.03308e-07
2.03468e-07
2.03629e-07
2.03792e-07
2.03956e-07
2.04122e-07
2.0429e-07
2.0446e-07
2.04632e-07
2.04806e-07
2.04982e-07
2.05161e-07
2.05342e-07
2.05526e-07
2.05713e-07
2.05903e-07
2.06096e-07
2.06293e-07
2.06493e-07
2.06697e-07
2.06905e-07
2.07117e-07
2.07334e-07
2.07555e-07
2.07782e-07
2.08014e-07
2.08251e-07
2.08495e-07
2.08744e-07
2.09001e-07
2.09264e-07
2.09535e-07
2.09813e-07
2.101e-07
2.10396e-07
2.107e-07
2.11015e-07
2.11339e-07
2.11675e-07
2.12021e-07
2.1238e-07
2.12751e-07
2.13136e-07
2.13534e-07
2.13947e-07
2.14376e-07
2.14821e-07
2.15283e-07
2.15763e-07
2.16263e-07
2.16782e-07
2.17322e-07
2.17884e-07
2.1847e-07
2.19079e-07
2.19715e-07
2.20377e-07
2.21067e-07
2.21787e-07
2.22538e-07
2.23321e-07
2.24138e-07
2.24991e-07
2.25881e-07
2.26811e-07
2.27781e-07
2.28794e-07
2.29852e-07
2.30958e-07
2.32112e-07
2.33317e-07
2.34577e-07
2.35892e-07
2.37266e-07
2.387e-07
2.40199e-07
2.41764e-07
2.43399e-07
2.45106e-07
2.46888e-07
2.48749e-07
2.50692e-07
2.5272e-07
2.54836e-07
2.57045e-07
2.5935e-07
2.61754e-07
2.64262e-07
2.66878e-07
2.69605e-07
2.72448e-07
2.75412e-07
2.785e-07
2.81717e-07
2.85068e-07
2.88557e-07
2.9219e-07
2.95971e-07
2.99905e-07
3.03997e-07
3.08252e-07
3.12676e-07
3.17273e-07
3.2205e-07
3.27011e-07
3.32161e-07
3.37507e-07
3.43053e-07
3.48804e-07
3.54767e-07
3.60946e-07
3.67346e-07
3.73972e-07
3.8083e-07
3.87924e-07
3.95259e-07
4.0284e-07
4.10669e-07
4.18752e-07
4.27092e-07
4.35692e-07
4.44554e-07
4.53682e-07
4.63078e-07
4.72742e-07
4.82675e-07
4.92877e-07
5.03349e-07
5.14087e-07
5.25091e-07
5.36357e-07
5.47881e-07
5.59657e-07
5.7168e-07
5.83942e-07
5.96434e-07
6.09146e-07
6.22066e-07
6.35183e-07
6.48481e-07
6.61944e-07
6.75554e-07
6.89292e-07
7.03138e-07
7.17066e-07
7.31054e-07
7.45074e-07
7.59097e-07
7.73093e-07
7.87029e-07
8.00872e-07
8.14586e-07
8.28131e-07
8.4147e-07
8.54561e-07
8.67361e-07
8.79827e-07
8.91913e-07
9.03572e-07
9.14758e-07
9.25422e-07
9.35515e-07
9.44989e-07
9.53795e-07
9.61882e-07
9.69201e-07
9.75705e-07
9.81345e-07
9.86074e-07
9.89846e-07
9.92617e-07
9.94338e-07
9.94967e-07
9.94481e-07
9.92831e-07
9.89983e-07
9.85903e-07
9.8056e-07
9.73928e-07
9.6598e-07
9.56695e-07
9.46052e-07
9.34037e-07
9.20635e-07
9.05837e-07
8.89638e-07
8.72034e-07
8.53026e-07
8.32622e-07
8.10829e-07
7.87662e-07
7.63141e-07
7.37289e-07
7.10137e-07
6.81719e-07
6.52077e-07
6.21261e-07
5.89327e-07
5.56339e-07
5.22372e-07
4.87508e-07
4.51842e-07
4.15479e-07
3.7854e-07
3.41156e-07
3.03476e-07
2.65666e-07
2.2791e-07
1.90409e-07
1.53388e-07
1.17089e-07
8.17792e-08
4.77425e-08
1.5282e-08
)
;

boundaryField
{
    fixedWall
    {
        type            zeroGradient;
    }
    outlet
    {
        type            inletOutlet;
        inletValue      uniform 0;
        value           uniform 0;
    }
    defaultFaces
    {
        type            empty;
    }
}


// ************************************************************************* //
