/*--------------------------------*- C++ -*----------------------------------*\
| =========                 |                                                 |
| \\      /  F ield         | OpenFOAM: The Open Source CFD Toolbox           |
|  \\    /   O peration     | Version:  2406                                  |
|   \\  /    A nd           | Website:  www.openfoam.com                      |
|    \\/     M anipulation  |                                                 |
\*---------------------------------------------------------------------------*/
FoamFile
{
    version     2.0;
    format      ascii;
    arch        "LSB;label=32;scalar=64";
    class       volScalarField;
    location    "13.7";
    object      Qdot;
}
// * * * * * * * * * * * * * * * * * * * * * * * * * * * * * * * * * * * * * //

dimensions      [1 -1 -3 0 0 0 0];

internalField   nonuniform List<scalar> 
1000
(
-7.26648e-19
-1.24648e-17
-1.3348e-16
-9.78683e-16
3.80442e-09
1.14133e-08
3.8379e-08
1.23655e-07
3.35383e-07
8.26072e-07
1.86576e-06
3.88634e-06
7.57824e-06
1.39392e-05
2.43724e-05
4.07522e-05
6.54757e-05
0.000101519
0.00015246
0.000222463
0.000316259
0.000439083
0.000596582
0.000794713
0.00103962
0.00133746
0.00169431
0.00211595
0.00260775
0.00317452
0.00382036
0.00454857
0.00536154
0.00626068
0.00724636
0.00831789
0.00947354
0.0107105
0.012025
0.0134122
0.0148666
0.0163818
0.0179508
0.0195658
0.0212189
0.0229016
0.0246053
0.0263214
0.0280412
0.0297561
0.0314578
0.0331383
0.0347899
0.0364057
0.0379789
0.0395034
0.0409739
0.0423854
0.0437337
0.0450154
0.0462275
0.0473676
0.0484341
0.0494259
0.0503424
0.0511835
0.0519497
0.0526418
0.0532612
0.0538093
0.0542882
0.0547001
0.0550475
0.0553328
0.055559
0.055729
0.0558458
0.0559124
0.055932
0.0559077
0.0558426
0.0557396
0.055602
0.0554325
0.0552341
0.0550096
0.0547615
0.0544924
0.0542049
0.0539012
0.0535836
0.0532541
0.0529146
0.0525671
0.0522133
0.0518547
0.0514928
0.051129
0.0507647
0.0504008
0.0500386
0.0496789
0.0493227
0.0489707
0.0486236
0.0482822
0.0479468
0.047618
0.0472963
0.046982
0.0466755
0.0463769
0.0460865
0.0458044
0.0455309
0.045266
0.0450097
0.044762
0.0445231
0.0442928
0.0440712
0.043858
0.0436533
0.043457
0.043269
0.043089
0.042917
0.0427528
0.0425963
0.0424473
0.0423056
0.0421711
0.0420436
0.0419228
0.0418087
0.041701
0.0415995
0.0415041
0.0414146
0.0413307
0.0412524
0.0411793
0.0411114
0.0410485
0.0409904
0.0409369
0.0408878
0.040843
0.0408024
0.0407657
0.0407329
0.0407037
0.040678
0.0406558
0.0406367
0.0406208
0.0406079
0.0405978
0.0405904
0.0405857
0.0405834
0.0405836
0.040586
0.0405906
0.0405973
0.040606
0.0406166
0.040629
0.0406431
0.0406588
0.0406761
0.0406949
0.0407151
0.0407366
0.0407594
0.0407835
0.0408086
0.0408349
0.0408622
0.0408905
0.0409197
0.0409498
0.0409808
0.0410125
0.0410449
0.0410781
0.041112
0.0411464
0.0411814
0.041217
0.0412532
0.04129
0.0413272
0.0413649
0.041403
0.0414415
0.0414804
0.0415197
0.0415592
0.041599
0.0416393
0.0416798
0.0417207
0.0417616
0.0418029
0.0418444
0.0418861
0.0419279
0.04197
0.0420123
0.0420548
0.0420974
0.0421402
0.0421832
0.0422262
0.0422694
0.0423127
0.0423561
0.0423997
0.0424433
0.042487
0.0425307
0.0425746
0.0426185
0.0426626
0.0427068
0.0427511
0.0427954
0.0428397
0.0428842
0.0429287
0.0429734
0.0430178
0.0430626
0.0431074
0.0431522
0.0431971
0.043242
0.043287
0.0433321
0.0433772
0.0434223
0.0434675
0.0435127
0.043558
0.0436034
0.0436488
0.0436942
0.0437397
0.0437852
0.0438308
0.0438764
0.0439221
0.0439679
0.0440137
0.0440594
0.0441053
0.0441512
0.0441972
0.0442433
0.0442894
0.0443355
0.0443817
0.0444279
0.0444742
0.0445205
0.0445669
0.0446133
0.0446598
0.0447063
0.0447529
0.0447996
0.0448463
0.044893
0.0449398
0.0449867
0.0450336
0.0450806
0.0451277
0.0451748
0.0452219
0.045269
0.0453162
0.0453636
0.045411
0.0454584
0.0455059
0.0455534
0.045601
0.0456487
0.0456964
0.0457442
0.0457921
0.04584
0.045888
0.045936
0.0459841
0.0460323
0.0460805
0.0461288
0.0461772
0.0462256
0.0462741
0.0463226
0.0463713
0.04642
0.0464687
0.0465175
0.0465664
0.0466154
0.0466644
0.0467135
0.0467627
0.0468119
0.0468612
0.0469106
0.04696
0.0470096
0.0470592
0.0471088
0.0471585
0.0472083
0.0472582
0.0473082
0.0473582
0.0474083
0.0474584
0.0475087
0.047559
0.0476094
0.0476599
0.0477104
0.0477611
0.0478118
0.0478626
0.0479135
0.0479644
0.0480155
0.0480663
0.0481175
0.0481688
0.0482201
0.0482716
0.0483231
0.0483746
0.0484263
0.048478
0.0485298
0.0485817
0.0486337
0.0486857
0.0487379
0.0487901
0.0488424
0.0488948
0.0489472
0.0489998
0.0490524
0.0491051
0.0491579
0.0492108
0.0492638
0.0493169
0.04937
0.0494232
0.0494765
0.0495299
0.0495834
0.049637
0.0496906
0.0497444
0.0497982
0.0498522
0.0499062
0.0499603
0.0500145
0.0500687
0.0501231
0.0501776
0.0502321
0.0502867
0.0503415
0.0503963
0.0504512
0.0505062
0.0505613
0.0506165
0.0506717
0.0507271
0.0507825
0.0508381
0.0508937
0.0509495
0.0510053
0.0510612
0.0511172
0.0511733
0.0512295
0.0512858
0.0513422
0.0513986
0.0514552
0.0515119
0.0515687
0.0516255
0.0516825
0.0517395
0.0517967
0.051854
0.0519113
0.0519688
0.0520263
0.0520837
0.0521415
0.0521993
0.052257
0.0523151
0.0523732
0.0524313
0.0524896
0.0525481
0.0526066
0.0526652
0.0527239
0.0527827
0.0528415
0.0529005
0.0529596
0.0530188
0.0530781
0.0531374
0.0531969
0.0532565
0.0533161
0.0533759
0.0534358
0.0534957
0.0535558
0.0536159
0.0536762
0.0537366
0.0537971
0.0538577
0.0539183
0.0539791
0.05404
0.054101
0.0541621
0.0542233
0.0542846
0.054346
0.0544075
0.0544692
0.0545309
0.0545927
0.0546546
0.0547166
0.0547788
0.054841
0.0549033
0.0549658
0.0550283
0.055091
0.0551538
0.0552167
0.0552797
0.0553428
0.055406
0.0554693
0.0555327
0.0555963
0.0556599
0.0557237
0.0557875
0.0558515
0.0559156
0.0559798
0.0560439
0.0561084
0.0561729
0.0562376
0.0563023
0.0563672
0.0564322
0.0564972
0.0565624
0.0566277
0.0566932
0.0567587
0.0568243
0.0568901
0.056956
0.057022
0.0570881
0.0571543
0.0572206
0.0572871
0.0573537
0.0574203
0.0574871
0.0575541
0.0576211
0.0576883
0.0577556
0.057823
0.0578903
0.057958
0.0580256
0.0580935
0.0581615
0.0582296
0.0582979
0.0583662
0.0584347
0.0585033
0.058572
0.0586408
0.0587097
0.0587788
0.058848
0.0589173
0.0589867
0.0590563
0.0591259
0.0591957
0.0592656
0.0593356
0.0594058
0.0594761
0.0595465
0.059617
0.0596876
0.0597584
0.0598293
0.0599004
0.0599716
0.0600428
0.0601143
0.0601858
0.0602575
0.0603293
0.0604012
0.0604733
0.0605455
0.0606178
0.0606902
0.0607628
0.0608355
0.0609083
0.0609813
0.0610544
0.0611276
0.0612009
0.0612744
0.0613481
0.0614218
0.0614957
0.0615697
0.0616438
0.0617181
0.0617925
0.0618671
0.0619418
0.0620166
0.0620916
0.0621667
0.0622419
0.0623173
0.0623925
0.0624682
0.062544
0.0626199
0.0626959
0.0627721
0.0628485
0.0629249
0.0630015
0.0630783
0.0631551
0.0632322
0.0633093
0.0633866
0.063464
0.0635416
0.0636193
0.0636972
0.0637752
0.0638534
0.0639317
0.0640101
0.0640887
0.0641675
0.0642464
0.0643254
0.0644046
0.0644839
0.0645633
0.064643
0.0647227
0.0648026
0.0648827
0.0649629
0.0650433
0.0651238
0.0652044
0.0652852
0.0653662
0.0654473
0.0655286
0.06561
0.0656915
0.0657733
0.0658551
0.0659372
0.0660194
0.0661017
0.0661842
0.0662668
0.0663496
0.0664326
0.0665157
0.066599
0.0666824
0.066766
0.0668497
0.0669336
0.0670177
0.0671019
0.0671863
0.0672708
0.0673555
0.0674404
0.0675254
0.0676106
0.0676959
0.0677814
0.0678671
0.0679529
0.0680389
0.0681251
0.0682114
0.0682979
0.0683845
0.0684713
0.0685583
0.0686455
0.0687328
0.0688202
0.0689079
0.0689957
0.0690837
0.0691718
0.0692602
0.0693486
0.0694373
0.0695261
0.0696151
0.0697043
0.0697936
0.0698831
0.0699728
0.0700627
0.0701527
0.0702429
0.0703332
0.0704238
0.0705145
0.0706054
0.0706965
0.0707877
0.0708791
0.0709707
0.0710625
0.0711544
0.0712466
0.0713389
0.0714314
0.0715241
0.0716169
0.07171
0.0718032
0.0718966
0.0719899
0.0720832
0.0721772
0.0722712
0.0723655
0.0724599
0.0725546
0.0726494
0.0727444
0.0728395
0.0729349
0.0730304
0.0731262
0.0732221
0.0733182
0.0734145
0.073511
0.0736077
0.0737046
0.0738017
0.0738987
0.0739957
0.0740933
0.074191
0.074289
0.0743872
0.0744855
0.0745841
0.0746828
0.0747817
0.0748809
0.0749802
0.0750797
0.0751794
0.0752793
0.0753794
0.0754797
0.0755802
0.0756809
0.0757818
0.0758829
0.0759842
0.0760856
0.0761873
0.0762892
0.0763913
0.0764936
0.0765961
0.0766988
0.0768017
0.0769048
0.0770081
0.0771116
0.0772154
0.0773193
0.0774234
0.0775277
0.0776323
0.077737
0.077842
0.0779471
0.0780525
0.078158
0.0782638
0.0783698
0.078476
0.0785824
0.078689
0.0787958
0.0789028
0.07901
0.0791174
0.0792251
0.0793329
0.0794409
0.0795492
0.0796577
0.0797663
0.0798752
0.0799843
0.0800936
0.0802031
0.0803129
0.0804228
0.080533
0.0806434
0.080754
0.0808648
0.0809758
0.0810871
0.0811986
0.0813103
0.0814223
0.0815345
0.0816469
0.0817596
0.0818726
0.0819858
0.0820993
0.0822131
0.0823271
0.0824415
0.0825561
0.0826711
0.0827864
0.0829021
0.0830181
0.0831345
0.0832513
0.0833686
0.0834862
0.0836044
0.083723
0.0838422
0.0839619
0.0840822
0.0842032
0.0843248
0.0844471
0.0845702
0.0846941
0.0848189
0.0849446
0.0850713
0.0851991
0.085328
0.0854581
0.0855895
0.0857223
0.0858566
0.0859925
0.0861301
0.0862696
0.086411
0.0865545
0.0867002
0.0868484
0.0869991
0.0871526
0.087309
0.0874686
0.0876315
0.087798
0.0879683
0.0881427
0.0883215
0.0885049
0.0886932
0.0888868
0.089086
0.0892912
0.0895026
0.0897209
0.0899462
0.0901792
0.0904202
0.0906698
0.0909284
0.0911967
0.0914751
0.0917642
0.0920647
0.0923772
0.0927025
0.0930411
0.0933938
0.0937615
0.0941449
0.0945448
0.0949622
0.0953978
0.0958527
0.0963279
0.0968242
0.0973428
0.0978848
0.0984512
0.0990432
0.0996619
0.100309
0.100985
0.101691
0.102429
0.1032
0.104006
0.104848
0.105727
0.106644
0.107601
0.1086
0.109642
0.110728
0.11186
0.113039
0.114267
0.115544
0.116872
0.118253
0.119687
0.121176
0.12272
0.12432
0.125978
0.127693
0.129466
0.131298
0.133188
0.135135
0.13714
0.139202
0.141318
0.143489
0.145711
0.147983
0.150301
0.152662
0.155062
0.157497
0.159961
0.162448
0.164951
0.167464
0.169979
0.172485
0.174973
0.177433
0.179852
0.182218
0.184518
0.186738
0.18886
0.190871
0.192752
0.194486
0.196054
0.197437
0.198615
0.19957
0.20028
0.200726
0.200888
0.200747
0.200283
0.199479
0.198319
0.196788
0.194873
0.192564
0.189851
0.18673
0.183198
0.179258
0.174913
0.170174
0.165053
0.159569
0.153742
0.1476
0.141173
0.134495
0.127605
0.120545
0.113358
0.106094
0.0987995
0.0915251
0.0843208
0.0772359
0.0703183
0.0636136
0.0571642
0.0510084
0.04518
0.0397072
0.0346127
0.0299157
0.0256576
0.0217663
0.0182772
0.0151823
0.0124683
0.0101162
0.0081032
0.00640291
0.00498662
0.00382414
0.0028848
0.00213829
0.00155547
0.00110897
0.000773767
0.000527525
0.000350802
0.000227106
0.000142835
8.70682e-05
5.1311e-05
2.91498e-05
1.59138e-05
8.32013e-06
4.14932e-06
1.96543e-06
8.80991e-07
3.70878e-07
1.45722e-07
5.31033e-08
1.77699e-08
5.53514e-09
1.42656e-09
3.44348e-10
-4.54728e-10
-9.97142e-14
-5.10051e-18
-6.42804e-19
1.22168e-11
-6.987e-21
0
0
)
;

boundaryField
{
    fixedWall
    {
        type            calculated;
        value           uniform 0;
    }
    outlet
    {
        type            calculated;
        value           uniform 0;
    }
    defaultFaces
    {
        type            empty;
    }
}


// ************************************************************************* //
