/*--------------------------------*- C++ -*----------------------------------*\
| =========                 |                                                 |
| \\      /  F ield         | OpenFOAM: The Open Source CFD Toolbox           |
|  \\    /   O peration     | Version:  2406                                  |
|   \\  /    A nd           | Website:  www.openfoam.com                      |
|    \\/     M anipulation  |                                                 |
\*---------------------------------------------------------------------------*/
FoamFile
{
    version     2.0;
    format      ascii;
    arch        "LSB;label=32;scalar=64";
    class       surfaceScalarField;
    location    "0.5";
    object      phi;
}
// * * * * * * * * * * * * * * * * * * * * * * * * * * * * * * * * * * * * * //

dimensions      [1 0 -1 0 0 0 0];

oriented        oriented;

internalField   nonuniform List<scalar> 
999
(
-2.5486e-06
-5.39975e-06
-8.05736e-06
-1.04949e-05
-1.27345e-05
-1.48003e-05
-1.67116e-05
-1.84832e-05
-2.01265e-05
-2.16505e-05
-2.30618e-05
-2.43663e-05
-2.55684e-05
-2.66722e-05
-2.76812e-05
-2.85985e-05
-2.94274e-05
-3.01711e-05
-3.08326e-05
-3.1414e-05
-3.19228e-05
-3.23612e-05
-3.27338e-05
-3.30451e-05
-3.33e-05
-3.35038e-05
-3.36618e-05
-3.37793e-05
-3.38617e-05
-3.39142e-05
-3.39418e-05
-3.39491e-05
-3.39405e-05
-3.392e-05
-3.38909e-05
-3.38562e-05
-3.38186e-05
-3.378e-05
-3.37421e-05
-3.37062e-05
-3.36733e-05
-3.36438e-05
-3.36183e-05
-3.35968e-05
-3.35794e-05
-3.35659e-05
-3.35562e-05
-3.35498e-05
-3.35465e-05
-3.35458e-05
-3.35474e-05
-3.35507e-05
-3.35554e-05
-3.3561e-05
-3.35671e-05
-3.35735e-05
-3.35797e-05
-3.35856e-05
-3.35909e-05
-3.35953e-05
-3.35984e-05
-3.35994e-05
-3.35975e-05
-3.35919e-05
-3.35823e-05
-3.35692e-05
-3.35539e-05
-3.35375e-05
-3.35171e-05
-3.34771e-05
-3.33739e-05
-3.31046e-05
-3.24236e-05
-3.06212e-05
-2.51982e-05
-4.86817e-06
0.00016799
0.00035011
0.000519449
0.000653912
0.000746048
0.000802825
0.000835577
0.000853764
0.00086365
0.000868956
0.000871779
0.000873267
0.00087404
0.000874432
0.000874621
0.000874703
0.000874726
0.00087472
0.000874697
0.000874665
0.000874629
0.000874591
0.000874552
0.000874512
0.000874471
0.000874431
0.000874391
0.00087435
0.00087431
0.000874269
0.000874229
0.000874189
0.000874148
0.000874108
0.000874068
0.000874028
0.000873988
0.000873948
0.000873908
0.000873868
0.000873828
0.000873788
0.000873749
0.000873709
0.000873669
0.00087363
0.00087359
0.000873551
0.000873512
0.000873472
0.000873433
0.000873394
0.000873355
0.000873315
0.000873276
0.000873237
0.000873198
0.00087316
0.000873121
0.000873082
0.000873043
0.000873004
0.000872966
0.000872927
0.000872889
0.00087285
0.000872812
0.000872773
0.000872735
0.000872697
0.000872659
0.00087262
0.000872582
0.000872544
0.000872506
0.000872468
0.00087243
0.000872393
0.000872355
0.000872317
0.000872279
0.000872242
0.000872204
0.000872167
0.000872129
0.000872092
0.000872054
0.000872017
0.00087198
0.000871943
0.000871905
0.000871868
0.000871831
0.000871794
0.000871757
0.00087172
0.000871684
0.000871647
0.00087161
0.000871573
0.000871537
0.0008715
0.000871464
0.000871427
0.000871391
0.000871354
0.000871318
0.000871282
0.000871245
0.000871209
0.000871173
0.000871137
0.000871101
0.000871065
0.000871029
0.000870993
0.000870958
0.000870922
0.000870886
0.000870851
0.000870815
0.000870779
0.000870744
0.000870708
0.000870673
0.000870638
0.000870602
0.000870567
0.000870532
0.000870497
0.000870462
0.000870427
0.000870392
0.000870357
0.000870322
0.000870287
0.000870252
0.000870218
0.000870183
0.000870148
0.000870114
0.000870079
0.000870045
0.000870011
0.000869976
0.000869942
0.000869908
0.000869873
0.000869839
0.000869805
0.000869771
0.000869737
0.000869703
0.000869669
0.000869635
0.000869602
0.000869568
0.000869534
0.0008695
0.000869467
0.000869433
0.0008694
0.000869366
0.000869333
0.0008693
0.000869266
0.000869233
0.0008692
0.000869167
0.000869134
0.000869101
0.000869068
0.000869035
0.000869002
0.000868969
0.000868936
0.000868903
0.000868871
0.000868838
0.000868806
0.000868773
0.000868741
0.000868708
0.000868676
0.000868643
0.000868611
0.000868579
0.000868547
0.000868515
0.000868482
0.00086845
0.000868418
0.000868386
0.000868355
0.000868323
0.000868291
0.000868259
0.000868228
0.000868196
0.000868164
0.000868133
0.000868101
0.00086807
0.000868038
0.000868007
0.000867976
0.000867945
0.000867913
0.000867882
0.000867851
0.00086782
0.000867789
0.000867758
0.000867727
0.000867696
0.000867666
0.000867635
0.000867604
0.000867574
0.000867543
0.000867512
0.000867482
0.000867451
0.000867421
0.000867391
0.00086736
0.00086733
0.0008673
0.00086727
0.00086724
0.00086721
0.00086718
0.00086715
0.00086712
0.00086709
0.00086706
0.00086703
0.000867
0.000866971
0.000866941
0.000866912
0.000866882
0.000866853
0.000866823
0.000866794
0.000866764
0.000866735
0.000866706
0.000866677
0.000866648
0.000866619
0.00086659
0.000866561
0.000866532
0.000866503
0.000866474
0.000866445
0.000866416
0.000866388
0.000866359
0.00086633
0.000866302
0.000866273
0.000866245
0.000866216
0.000866188
0.00086616
0.000866131
0.000866103
0.000866075
0.000866047
0.000866019
0.000865991
0.000865963
0.000865935
0.000865907
0.000865879
0.000865851
0.000865824
0.000865796
0.000865768
0.000865741
0.000865713
0.000865686
0.000865658
0.000865631
0.000865603
0.000865576
0.000865549
0.000865522
0.000865494
0.000865467
0.00086544
0.000865413
0.000865386
0.000865359
0.000865332
0.000865306
0.000865279
0.000865252
0.000865225
0.000865199
0.000865172
0.000865145
0.000865119
0.000865092
0.000865066
0.00086504
0.000865013
0.000864987
0.000864961
0.000864935
0.000864909
0.000864882
0.000864856
0.00086483
0.000864804
0.000864779
0.000864753
0.000864727
0.000864701
0.000864675
0.00086465
0.000864624
0.000864599
0.000864573
0.000864548
0.000864522
0.000864497
0.000864471
0.000864446
0.000864421
0.000864396
0.000864371
0.000864345
0.00086432
0.000864295
0.00086427
0.000864246
0.000864221
0.000864196
0.000864171
0.000864146
0.000864122
0.000864097
0.000864072
0.000864048
0.000864023
0.000863999
0.000863974
0.00086395
0.000863926
0.000863902
0.000863877
0.000863853
0.000863829
0.000863805
0.000863781
0.000863757
0.000863733
0.000863709
0.000863685
0.000863661
0.000863638
0.000863614
0.00086359
0.000863567
0.000863543
0.000863519
0.000863496
0.000863473
0.000863449
0.000863426
0.000863402
0.000863379
0.000863356
0.000863333
0.00086331
0.000863287
0.000863264
0.000863241
0.000863218
0.000863195
0.000863172
0.000863149
0.000863126
0.000863104
0.000863081
0.000863058
0.000863036
0.000863013
0.000862991
0.000862968
0.000862946
0.000862924
0.000862901
0.000862879
0.000862857
0.000862835
0.000862813
0.00086279
0.000862768
0.000862746
0.000862725
0.000862703
0.000862681
0.000862659
0.000862637
0.000862616
0.000862594
0.000862572
0.000862551
0.000862529
0.000862508
0.000862486
0.000862465
0.000862443
0.000862422
0.000862401
0.00086238
0.000862358
0.000862337
0.000862316
0.000862295
0.000862274
0.000862253
0.000862232
0.000862212
0.000862191
0.00086217
0.000862149
0.000862129
0.000862108
0.000862087
0.000862067
0.000862046
0.000862026
0.000862005
0.000861985
0.000861965
0.000861944
0.000861924
0.000861904
0.000861884
0.000861864
0.000861844
0.000861824
0.000861804
0.000861784
0.000861764
0.000861744
0.000861724
0.000861705
0.000861685
0.000861665
0.000861646
0.000861626
0.000861607
0.000861587
0.000861568
0.000861548
0.000861529
0.00086151
0.00086149
0.000861471
0.000861452
0.000861433
0.000861414
0.000861395
0.000861376
0.000861357
0.000861338
0.000861319
0.0008613
0.000861282
0.000861263
0.000861244
0.000861226
0.000861207
0.000861188
0.00086117
0.000861151
0.000861133
0.000861115
0.000861096
0.000861078
0.00086106
0.000861042
0.000861023
0.000861005
0.000860987
0.000860969
0.000860951
0.000860933
0.000860915
0.000860898
0.00086088
0.000860862
0.000860844
0.000860827
0.000860809
0.000860791
0.000860774
0.000860756
0.000860739
0.000860721
0.000860704
0.000860687
0.000860669
0.000860652
0.000860635
0.000860618
0.000860601
0.000860584
0.000860567
0.00086055
0.000860533
0.000860516
0.000860499
0.000860482
0.000860465
0.000860449
0.000860432
0.000860415
0.000860399
0.000860382
0.000860366
0.000860349
0.000860333
0.000860317
0.0008603
0.000860284
0.000860268
0.000860251
0.000860235
0.000860219
0.000860203
0.000860187
0.000860171
0.000860155
0.000860139
0.000860123
0.000860108
0.000860092
0.000860076
0.00086006
0.000860045
0.000860029
0.000860014
0.000859998
0.000859983
0.000859967
0.000859952
0.000859937
0.000859921
0.000859906
0.000859891
0.000859876
0.000859861
0.000859845
0.00085983
0.000859815
0.0008598
0.000859786
0.000859771
0.000859756
0.000859741
0.000859726
0.000859712
0.000859697
0.000859682
0.000859668
0.000859653
0.000859639
0.000859624
0.00085961
0.000859596
0.000859581
0.000859567
0.000859553
0.000859539
0.000859525
0.00085951
0.000859496
0.000859482
0.000859468
0.000859454
0.000859441
0.000859427
0.000859413
0.000859399
0.000859386
0.000859372
0.000859358
0.000859345
0.000859331
0.000859318
0.000859304
0.000859291
0.000859277
0.000859264
0.000859251
0.000859237
0.000859224
0.000859211
0.000859198
0.000859185
0.000859172
0.000859159
0.000859146
0.000859133
0.00085912
0.000859107
0.000859095
0.000859082
0.000859069
0.000859056
0.000859044
0.000859031
0.000859019
0.000859006
0.000858994
0.000858981
0.000858969
0.000858957
0.000858944
0.000858932
0.00085892
0.000858908
0.000858896
0.000858884
0.000858872
0.00085886
0.000858848
0.000858836
0.000858824
0.000858812
0.0008588
0.000858789
0.000858777
0.000858765
0.000858754
0.000858742
0.000858731
0.000858719
0.000858708
0.000858696
0.000858685
0.000858674
0.000858662
0.000858651
0.00085864
0.000858629
0.000858618
0.000858607
0.000858596
0.000858585
0.000858574
0.000858563
0.000858552
0.000858541
0.00085853
0.00085852
0.000858509
0.000858498
0.000858488
0.000858477
0.000858467
0.000858456
0.000858446
0.000858435
0.000858425
0.000858415
0.000858404
0.000858394
0.000858384
0.000858374
0.000858364
0.000858354
0.000858344
0.000858334
0.000858324
0.000858314
0.000858304
0.000858294
0.000858284
0.000858275
0.000858265
0.000858255
0.000858246
0.000858236
0.000858227
0.000858217
0.000858208
0.000858198
0.000858189
0.00085818
0.00085817
0.000858161
0.000858152
0.000858143
0.000858134
0.000858125
0.000858116
0.000858107
0.000858098
0.000858089
0.00085808
0.000858071
0.000858062
0.000858054
0.000858045
0.000858036
0.000858028
0.000858019
0.000858011
0.000858002
0.000857994
0.000857985
0.000857977
0.000857969
0.00085796
0.000857952
0.000857944
0.000857936
0.000857928
0.00085792
0.000857912
0.000857904
0.000857896
0.000857888
0.00085788
0.000857872
0.000857864
0.000857857
0.000857849
0.000857841
0.000857834
0.000857826
0.000857819
0.000857811
0.000857804
0.000857796
0.000857789
0.000857781
0.000857774
0.000857767
0.00085776
0.000857753
0.000857745
0.000857738
0.000857731
0.000857724
0.000857717
0.00085771
0.000857704
0.000857697
0.00085769
0.000857683
0.000857676
0.00085767
0.000857663
0.000857657
0.00085765
0.000857644
0.000857637
0.000857631
0.000857624
0.000857618
0.000857612
0.000857605
0.000857599
0.000857593
0.000857587
0.000857581
0.000857575
0.000857569
0.000857563
0.000857557
0.000857551
0.000857545
0.000857539
0.000857533
0.000857528
0.000857522
0.000857516
0.000857511
0.000857505
0.0008575
0.000857494
0.000857489
0.000857483
0.000857478
0.000857473
0.000857467
0.000857462
0.000857457
0.000857452
0.000857447
0.000857442
0.000857437
0.000857432
0.000857427
0.000857422
0.000857417
0.000857412
0.000857407
0.000857402
0.000857398
0.000857393
0.000857388
0.000857384
0.000857379
0.000857375
0.00085737
0.000857366
0.000857362
0.000857357
0.000857353
0.000857349
0.000857344
0.00085734
0.000857336
0.000857332
0.000857328
0.000857324
0.00085732
0.000857316
0.000857312
0.000857308
0.000857304
0.000857301
0.000857297
0.000857293
0.00085729
0.000857286
0.000857282
0.000857279
0.000857275
0.000857272
0.000857269
0.000857265
0.000857262
0.000857259
0.000857255
0.000857252
0.000857249
0.000857246
0.000857243
0.00085724
0.000857237
0.000857234
0.000857231
0.000857228
0.000857225
0.000857222
0.00085722
0.000857217
0.000857214
0.000857212
0.000857209
0.000857206
0.000857204
0.000857201
0.000857199
0.000857197
0.000857194
0.000857192
0.00085719
0.000857187
0.000857185
0.000857183
0.000857181
0.000857179
0.000857177
0.000857175
0.000857173
0.000857171
0.000857169
0.000857167
0.000857166
0.000857164
0.000857162
0.00085716
0.000857159
0.000857157
0.000857156
0.000857154
0.000857153
0.000857151
0.00085715
0.000857149
0.000857147
0.000857146
0.000857145
0.000857144
0.000857143
0.000857141
0.00085714
0.000857139
0.000857138
0.000857138
0.000857137
0.000857136
0.000857135
0.000857134
0.000857133
0.000857133
0.000857132
0.000857132
0.000857131
0.00085713
0.00085713
0.00085713
0.000857129
0.000857129
0.000857128
0.000857128
0.000857128
0.000857128
0.000857128
0.000857127
0.000857127
)
;

boundaryField
{
    fixedWall
    {
        type            calculated;
        value           uniform 0;
    }
    outlet
    {
        type            calculated;
        value           uniform 0.000857127;
    }
    defaultFaces
    {
        type            empty;
    }
}


// ************************************************************************* //
