/*--------------------------------*- C++ -*----------------------------------*\
| =========                 |                                                 |
| \\      /  F ield         | OpenFOAM: The Open Source CFD Toolbox           |
|  \\    /   O peration     | Version:  2406                                  |
|   \\  /    A nd           | Website:  www.openfoam.com                      |
|    \\/     M anipulation  |                                                 |
\*---------------------------------------------------------------------------*/
FoamFile
{
    version     2.0;
    format      ascii;
    arch        "LSB;label=32;scalar=64";
    class       volScalarField;
    location    "8";
    object      O2;
}
// * * * * * * * * * * * * * * * * * * * * * * * * * * * * * * * * * * * * * //

dimensions      [0 0 0 0 0 0 0];

internalField   nonuniform List<scalar> 
1000
(
1.2587e-06
1.25627e-06
1.2519e-06
1.24592e-06
1.2386e-06
1.23011e-06
1.22061e-06
1.21022e-06
1.19904e-06
1.18716e-06
1.17465e-06
1.16157e-06
1.14799e-06
1.13395e-06
1.1195e-06
1.10469e-06
1.08954e-06
1.07411e-06
1.05841e-06
1.04249e-06
1.02637e-06
1.01008e-06
9.93646e-07
9.77093e-07
9.60448e-07
9.43733e-07
9.26972e-07
9.10188e-07
8.93404e-07
8.7664e-07
8.59919e-07
8.4326e-07
8.26685e-07
8.10212e-07
7.93861e-07
7.7765e-07
7.61597e-07
7.45719e-07
7.30032e-07
7.14553e-07
6.99295e-07
6.84272e-07
6.69497e-07
6.54982e-07
6.40737e-07
6.26772e-07
6.13097e-07
5.99718e-07
5.86642e-07
5.73876e-07
5.61423e-07
5.49288e-07
5.37473e-07
5.2598e-07
5.14811e-07
5.03965e-07
4.93442e-07
4.83241e-07
4.73359e-07
4.63795e-07
4.54544e-07
4.45604e-07
4.3697e-07
4.28637e-07
4.20601e-07
4.12856e-07
4.05396e-07
3.98216e-07
3.91309e-07
3.8467e-07
3.7829e-07
3.72165e-07
3.66287e-07
3.6065e-07
3.55246e-07
3.50069e-07
3.45112e-07
3.40368e-07
3.35831e-07
3.31494e-07
3.2735e-07
3.23392e-07
3.19615e-07
3.16012e-07
3.12576e-07
3.09302e-07
3.06184e-07
3.03216e-07
3.00392e-07
2.97707e-07
2.95155e-07
2.92731e-07
2.9043e-07
2.88247e-07
2.86177e-07
2.84216e-07
2.82359e-07
2.80602e-07
2.7894e-07
2.7737e-07
2.75887e-07
2.74488e-07
2.73169e-07
2.71927e-07
2.70758e-07
2.69658e-07
2.68626e-07
2.67657e-07
2.66749e-07
2.65899e-07
2.65104e-07
2.64363e-07
2.63671e-07
2.63028e-07
2.6243e-07
2.61876e-07
2.61363e-07
2.60889e-07
2.60454e-07
2.60054e-07
2.59688e-07
2.59354e-07
2.59051e-07
2.58777e-07
2.58531e-07
2.58311e-07
2.58116e-07
2.57945e-07
2.57797e-07
2.5767e-07
2.57564e-07
2.57477e-07
2.57408e-07
2.57356e-07
2.57321e-07
2.57301e-07
2.57297e-07
2.57306e-07
2.57328e-07
2.57363e-07
2.5741e-07
2.57468e-07
2.57537e-07
2.57616e-07
2.57705e-07
2.57802e-07
2.57909e-07
2.58023e-07
2.58145e-07
2.58274e-07
2.5841e-07
2.58553e-07
2.58701e-07
2.58856e-07
2.59016e-07
2.59181e-07
2.59351e-07
2.59526e-07
2.59705e-07
2.59888e-07
2.60075e-07
2.60266e-07
2.60461e-07
2.60658e-07
2.60859e-07
2.61063e-07
2.6127e-07
2.61479e-07
2.61691e-07
2.61906e-07
2.62122e-07
2.62341e-07
2.62562e-07
2.62785e-07
2.6301e-07
2.63236e-07
2.63464e-07
2.63694e-07
2.63926e-07
2.64158e-07
2.64393e-07
2.64628e-07
2.64865e-07
2.65103e-07
2.65342e-07
2.65582e-07
2.65823e-07
2.66066e-07
2.66309e-07
2.66554e-07
2.66799e-07
2.67045e-07
2.67292e-07
2.6754e-07
2.67788e-07
2.68038e-07
2.68288e-07
2.68539e-07
2.6879e-07
2.69043e-07
2.69296e-07
2.69549e-07
2.69803e-07
2.70058e-07
2.70314e-07
2.7057e-07
2.70826e-07
2.71082e-07
2.7134e-07
2.71599e-07
2.71858e-07
2.72118e-07
2.72378e-07
2.72639e-07
2.72901e-07
2.73162e-07
2.73425e-07
2.73688e-07
2.73951e-07
2.74215e-07
2.74479e-07
2.74744e-07
2.7501e-07
2.75276e-07
2.75542e-07
2.75809e-07
2.76076e-07
2.76344e-07
2.76612e-07
2.76881e-07
2.7715e-07
2.7742e-07
2.7769e-07
2.77961e-07
2.78232e-07
2.78503e-07
2.78775e-07
2.79048e-07
2.79321e-07
2.79594e-07
2.79868e-07
2.80143e-07
2.80418e-07
2.80693e-07
2.80969e-07
2.81245e-07
2.81522e-07
2.81799e-07
2.82077e-07
2.82355e-07
2.82633e-07
2.82912e-07
2.83192e-07
2.83472e-07
2.83752e-07
2.84033e-07
2.84315e-07
2.84597e-07
2.84879e-07
2.85162e-07
2.85445e-07
2.85729e-07
2.86013e-07
2.86298e-07
2.86583e-07
2.86869e-07
2.87155e-07
2.87441e-07
2.87729e-07
2.88016e-07
2.88304e-07
2.88593e-07
2.88882e-07
2.89172e-07
2.89462e-07
2.89752e-07
2.90043e-07
2.90335e-07
2.90627e-07
2.90919e-07
2.91212e-07
2.91506e-07
2.918e-07
2.92094e-07
2.9239e-07
2.92685e-07
2.92981e-07
2.93278e-07
2.93575e-07
2.93873e-07
2.94171e-07
2.94469e-07
2.94769e-07
2.95068e-07
2.95369e-07
2.95669e-07
2.95971e-07
2.96273e-07
2.96574e-07
2.96875e-07
2.97178e-07
2.97483e-07
2.97787e-07
2.98092e-07
2.98398e-07
2.98704e-07
2.99011e-07
2.99319e-07
2.99627e-07
2.99935e-07
3.00244e-07
3.00554e-07
3.00864e-07
3.01175e-07
3.01486e-07
3.01798e-07
3.02111e-07
3.02424e-07
3.02738e-07
3.03052e-07
3.03367e-07
3.03682e-07
3.03999e-07
3.04315e-07
3.04633e-07
3.04951e-07
3.05269e-07
3.05588e-07
3.05908e-07
3.06229e-07
3.0655e-07
3.06871e-07
3.07194e-07
3.07517e-07
3.0784e-07
3.08164e-07
3.08489e-07
3.08815e-07
3.09141e-07
3.09468e-07
3.09795e-07
3.10124e-07
3.10452e-07
3.10782e-07
3.11112e-07
3.11443e-07
3.11775e-07
3.12107e-07
3.1244e-07
3.12774e-07
3.13108e-07
3.13443e-07
3.13779e-07
3.14115e-07
3.14453e-07
3.14791e-07
3.15129e-07
3.15469e-07
3.15809e-07
3.1615e-07
3.16492e-07
3.16834e-07
3.17177e-07
3.17521e-07
3.17866e-07
3.18212e-07
3.18558e-07
3.18905e-07
3.19253e-07
3.19601e-07
3.19951e-07
3.20301e-07
3.20652e-07
3.21004e-07
3.21356e-07
3.2171e-07
3.22064e-07
3.22419e-07
3.22775e-07
3.23132e-07
3.23489e-07
3.23848e-07
3.24207e-07
3.24567e-07
3.24928e-07
3.2529e-07
3.25652e-07
3.26016e-07
3.2638e-07
3.26745e-07
3.27111e-07
3.27478e-07
3.27845e-07
3.28214e-07
3.28583e-07
3.28954e-07
3.29325e-07
3.29697e-07
3.3007e-07
3.30444e-07
3.30818e-07
3.31194e-07
3.3157e-07
3.31947e-07
3.32326e-07
3.32705e-07
3.33085e-07
3.33465e-07
3.33847e-07
3.3423e-07
3.34613e-07
3.34998e-07
3.35383e-07
3.35769e-07
3.36156e-07
3.36544e-07
3.36933e-07
3.37323e-07
3.37713e-07
3.38104e-07
3.38495e-07
3.38888e-07
3.39283e-07
3.39678e-07
3.40075e-07
3.40472e-07
3.4087e-07
3.41269e-07
3.41669e-07
3.4207e-07
3.42472e-07
3.42875e-07
3.43279e-07
3.43682e-07
3.44085e-07
3.44491e-07
3.44898e-07
3.45306e-07
3.45715e-07
3.46125e-07
3.46536e-07
3.46947e-07
3.4736e-07
3.47774e-07
3.48189e-07
3.48604e-07
3.49021e-07
3.49438e-07
3.49857e-07
3.50276e-07
3.50697e-07
3.51118e-07
3.51541e-07
3.51964e-07
3.52389e-07
3.52814e-07
3.53241e-07
3.53668e-07
3.54097e-07
3.54526e-07
3.54957e-07
3.55388e-07
3.55821e-07
3.56255e-07
3.56689e-07
3.57125e-07
3.57562e-07
3.58e-07
3.58439e-07
3.58879e-07
3.5932e-07
3.59762e-07
3.60205e-07
3.6065e-07
3.61095e-07
3.61542e-07
3.61989e-07
3.62438e-07
3.62888e-07
3.63339e-07
3.63791e-07
3.64244e-07
3.64699e-07
3.65154e-07
3.65611e-07
3.66069e-07
3.66528e-07
3.66988e-07
3.67449e-07
3.67912e-07
3.68375e-07
3.6884e-07
3.69306e-07
3.69773e-07
3.70242e-07
3.70711e-07
3.71182e-07
3.71654e-07
3.72127e-07
3.72602e-07
3.73078e-07
3.73555e-07
3.74033e-07
3.74512e-07
3.74993e-07
3.75475e-07
3.75958e-07
3.76442e-07
3.76928e-07
3.77415e-07
3.77901e-07
3.78387e-07
3.78878e-07
3.79371e-07
3.79864e-07
3.80359e-07
3.80855e-07
3.81352e-07
3.81851e-07
3.82351e-07
3.82852e-07
3.83355e-07
3.83859e-07
3.84365e-07
3.84871e-07
3.85379e-07
3.85889e-07
3.864e-07
3.86912e-07
3.87425e-07
3.8794e-07
3.88456e-07
3.88974e-07
3.89493e-07
3.90014e-07
3.90536e-07
3.91059e-07
3.91584e-07
3.9211e-07
3.92637e-07
3.93166e-07
3.93697e-07
3.94228e-07
3.94762e-07
3.95296e-07
3.95833e-07
3.9637e-07
3.96909e-07
3.9745e-07
3.97992e-07
3.98535e-07
3.9908e-07
3.99627e-07
4.00175e-07
4.00724e-07
4.01275e-07
4.01828e-07
4.02378e-07
4.0293e-07
4.03487e-07
4.04046e-07
4.04605e-07
4.05167e-07
4.05729e-07
4.06294e-07
4.0686e-07
4.07427e-07
4.07996e-07
4.08566e-07
4.09138e-07
4.09712e-07
4.10287e-07
4.10863e-07
4.11442e-07
4.12022e-07
4.12603e-07
4.13186e-07
4.13771e-07
4.14357e-07
4.14945e-07
4.15534e-07
4.16125e-07
4.16718e-07
4.17313e-07
4.17909e-07
4.18507e-07
4.19106e-07
4.19707e-07
4.2031e-07
4.20915e-07
4.21521e-07
4.22129e-07
4.22739e-07
4.2335e-07
4.23963e-07
4.24578e-07
4.25195e-07
4.25814e-07
4.26434e-07
4.27056e-07
4.2768e-07
4.28306e-07
4.28934e-07
4.29563e-07
4.30194e-07
4.30828e-07
4.31463e-07
4.321e-07
4.32739e-07
4.33379e-07
4.34022e-07
4.34667e-07
4.35314e-07
4.35962e-07
4.36613e-07
4.37265e-07
4.3792e-07
4.38576e-07
4.39234e-07
4.39895e-07
4.40557e-07
4.41222e-07
4.41889e-07
4.42557e-07
4.43228e-07
4.43901e-07
4.44575e-07
4.45252e-07
4.45931e-07
4.46607e-07
4.4729e-07
4.47976e-07
4.48663e-07
4.49353e-07
4.50045e-07
4.50739e-07
4.51435e-07
4.52133e-07
4.52834e-07
4.53537e-07
4.54242e-07
4.54949e-07
4.55658e-07
4.5637e-07
4.57084e-07
4.578e-07
4.58519e-07
4.5924e-07
4.59963e-07
4.60688e-07
4.61416e-07
4.62146e-07
4.62879e-07
4.63614e-07
4.64351e-07
4.6509e-07
4.65832e-07
4.66577e-07
4.67324e-07
4.68073e-07
4.68825e-07
4.69579e-07
4.70335e-07
4.71094e-07
4.71856e-07
4.7262e-07
4.73387e-07
4.74156e-07
4.74927e-07
4.75701e-07
4.76478e-07
4.77257e-07
4.78039e-07
4.78824e-07
4.79611e-07
4.804e-07
4.81193e-07
4.81988e-07
4.82785e-07
4.83585e-07
4.84388e-07
4.85194e-07
4.86002e-07
4.86813e-07
4.87626e-07
4.88442e-07
4.89261e-07
4.90083e-07
4.90907e-07
4.91734e-07
4.92564e-07
4.93396e-07
4.94232e-07
4.9507e-07
4.9591e-07
4.96754e-07
4.97599e-07
4.98442e-07
4.99294e-07
5.00148e-07
5.01005e-07
5.01865e-07
5.02728e-07
5.03593e-07
5.04462e-07
5.05333e-07
5.06207e-07
5.07084e-07
5.07964e-07
5.08847e-07
5.09733e-07
5.10622e-07
5.11513e-07
5.12408e-07
5.13305e-07
5.14206e-07
5.15109e-07
5.16016e-07
5.16925e-07
5.17838e-07
5.18754e-07
5.19672e-07
5.20594e-07
5.21519e-07
5.22448e-07
5.23379e-07
5.24314e-07
5.25251e-07
5.26193e-07
5.27137e-07
5.28085e-07
5.29036e-07
5.2999e-07
5.30948e-07
5.3191e-07
5.32874e-07
5.33843e-07
5.34815e-07
5.3579e-07
5.36769e-07
5.37752e-07
5.38738e-07
5.39728e-07
5.40722e-07
5.41719e-07
5.42721e-07
5.43726e-07
5.44735e-07
5.45748e-07
5.46764e-07
5.47785e-07
5.4881e-07
5.49839e-07
5.50872e-07
5.51909e-07
5.5295e-07
5.53996e-07
5.55045e-07
5.56099e-07
5.57152e-07
5.58207e-07
5.59274e-07
5.60345e-07
5.61421e-07
5.625e-07
5.63584e-07
5.64673e-07
5.65765e-07
5.66863e-07
5.67965e-07
5.69071e-07
5.70182e-07
5.71297e-07
5.72417e-07
5.73542e-07
5.74671e-07
5.75805e-07
5.76944e-07
5.78087e-07
5.79235e-07
5.80388e-07
5.81545e-07
5.82707e-07
5.83874e-07
5.85046e-07
5.86222e-07
5.87404e-07
5.8859e-07
5.89781e-07
5.90977e-07
5.92177e-07
5.93383e-07
5.94593e-07
5.95808e-07
5.97028e-07
5.98254e-07
5.99484e-07
6.00718e-07
6.01958e-07
6.03203e-07
6.04453e-07
6.05708e-07
6.06968e-07
6.08233e-07
6.09503e-07
6.10778e-07
6.12058e-07
6.13343e-07
6.14634e-07
6.15929e-07
6.1723e-07
6.18536e-07
6.19847e-07
6.21164e-07
6.22486e-07
6.23813e-07
6.25145e-07
6.26483e-07
6.27826e-07
6.29175e-07
6.30529e-07
6.31889e-07
6.33255e-07
6.34626e-07
6.36002e-07
6.37385e-07
6.38773e-07
6.40163e-07
6.41554e-07
6.4296e-07
6.44372e-07
6.45791e-07
6.47215e-07
6.48645e-07
6.50082e-07
6.51525e-07
6.52974e-07
6.54429e-07
6.55891e-07
6.57359e-07
6.58834e-07
6.60316e-07
6.61804e-07
6.63299e-07
6.64801e-07
6.6631e-07
6.67827e-07
6.69351e-07
6.70872e-07
6.72401e-07
6.73945e-07
6.75495e-07
6.77053e-07
6.78617e-07
6.80188e-07
6.81757e-07
6.83343e-07
6.84935e-07
6.86535e-07
6.88143e-07
6.89759e-07
6.91383e-07
6.93015e-07
6.94655e-07
6.96302e-07
6.97958e-07
6.99622e-07
7.01295e-07
7.02975e-07
7.04664e-07
7.06362e-07
7.08069e-07
7.09784e-07
7.11508e-07
7.13242e-07
7.14984e-07
7.16737e-07
7.18499e-07
7.2027e-07
7.22052e-07
7.23845e-07
7.25648e-07
7.27462e-07
7.29288e-07
7.31126e-07
7.32976e-07
7.34839e-07
7.36716e-07
7.38608e-07
7.40514e-07
7.42437e-07
7.44376e-07
7.46334e-07
7.48312e-07
7.5031e-07
7.52331e-07
7.54376e-07
7.56448e-07
7.58549e-07
7.6068e-07
7.62846e-07
7.6505e-07
7.67294e-07
7.69584e-07
7.71923e-07
7.74316e-07
7.76769e-07
7.79288e-07
7.8188e-07
7.84553e-07
7.87314e-07
7.90174e-07
7.93142e-07
7.96229e-07
7.99449e-07
8.02815e-07
8.06342e-07
8.10046e-07
8.13946e-07
8.18062e-07
8.22415e-07
8.2703e-07
8.31932e-07
8.3715e-07
8.42715e-07
8.4866e-07
8.55022e-07
8.61839e-07
8.69155e-07
8.77016e-07
8.8547e-07
8.94572e-07
9.04378e-07
9.14949e-07
9.26352e-07
9.38655e-07
9.51932e-07
9.66264e-07
9.81731e-07
9.98423e-07
1.01643e-06
1.03585e-06
1.05679e-06
1.07934e-06
1.10362e-06
1.12974e-06
1.1578e-06
1.18793e-06
1.22024e-06
1.25484e-06
1.29185e-06
1.33136e-06
1.37348e-06
1.4183e-06
1.4659e-06
1.51634e-06
1.56967e-06
1.62591e-06
1.68504e-06
1.74703e-06
1.81181e-06
1.87924e-06
1.94916e-06
2.02132e-06
2.09543e-06
2.17113e-06
2.24798e-06
2.32544e-06
2.4029e-06
2.47968e-06
2.55499e-06
2.62795e-06
2.69762e-06
2.76296e-06
2.82288e-06
2.87624e-06
2.92187e-06
2.95856e-06
2.98512e-06
3.00028e-06
3.00305e-06
2.99242e-06
2.96733e-06
2.92691e-06
2.87038e-06
2.79711e-06
2.70659e-06
2.59846e-06
2.47255e-06
2.32882e-06
2.16748e-06
1.98895e-06
1.7939e-06
1.58334e-06
1.35868e-06
1.12181e-06
8.75294e-07
6.22544e-07
3.68152e-07
1.1832e-07
)
;

boundaryField
{
    fixedWall
    {
        type            zeroGradient;
    }
    outlet
    {
        type            inletOutlet;
        inletValue      uniform 0;
        value           uniform 0;
    }
    defaultFaces
    {
        type            empty;
    }
}


// ************************************************************************* //
