/*--------------------------------*- C++ -*----------------------------------*\
| =========                 |                                                 |
| \\      /  F ield         | OpenFOAM: The Open Source CFD Toolbox           |
|  \\    /   O peration     | Version:  2406                                  |
|   \\  /    A nd           | Website:  www.openfoam.com                      |
|    \\/     M anipulation  |                                                 |
\*---------------------------------------------------------------------------*/
FoamFile
{
    version     2.0;
    format      ascii;
    arch        "LSB;label=32;scalar=64";
    class       surfaceScalarField;
    location    "8";
    object      phi;
}
// * * * * * * * * * * * * * * * * * * * * * * * * * * * * * * * * * * * * * //

dimensions      [1 0 -1 0 0 0 0];

oriented        oriented;

internalField   nonuniform List<scalar> 
999
(
-2.58899e-08
-8.44088e-08
-1.6214e-07
-2.51478e-07
-3.47846e-07
-4.48362e-07
-5.51169e-07
-6.55017e-07
-7.59069e-07
-8.62737e-07
-9.65626e-07
-1.06745e-06
-1.16802e-06
-1.2672e-06
-1.36489e-06
-1.46105e-06
-1.55562e-06
-1.6486e-06
-1.73997e-06
-1.82974e-06
-1.91791e-06
-2.00449e-06
-2.0895e-06
-2.17297e-06
-2.2549e-06
-2.33533e-06
-2.41426e-06
-2.49174e-06
-2.56776e-06
-2.64237e-06
-2.71557e-06
-2.7874e-06
-2.85786e-06
-2.92699e-06
-2.99481e-06
-3.06132e-06
-3.12656e-06
-3.19054e-06
-3.25329e-06
-3.3148e-06
-3.37512e-06
-3.43425e-06
-3.4922e-06
-3.54901e-06
-3.60467e-06
-3.65921e-06
-3.71265e-06
-3.765e-06
-3.81627e-06
-3.86648e-06
-3.91564e-06
-3.96377e-06
-4.01088e-06
-4.05699e-06
-4.10211e-06
-4.14625e-06
-4.18943e-06
-4.23166e-06
-4.27295e-06
-4.31331e-06
-4.35277e-06
-4.39133e-06
-4.429e-06
-4.4658e-06
-4.50174e-06
-4.53683e-06
-4.57108e-06
-4.60452e-06
-4.63715e-06
-4.66897e-06
-4.70002e-06
-4.73028e-06
-4.75979e-06
-4.78855e-06
-4.81657e-06
-4.84387e-06
-4.87045e-06
-4.89633e-06
-4.92153e-06
-4.94605e-06
-4.9699e-06
-4.9931e-06
-5.01566e-06
-5.03759e-06
-5.05889e-06
-5.0796e-06
-5.09971e-06
-5.11923e-06
-5.13819e-06
-5.15658e-06
-5.17443e-06
-5.19173e-06
-5.20851e-06
-5.22478e-06
-5.24054e-06
-5.25581e-06
-5.2706e-06
-5.28491e-06
-5.29876e-06
-5.31217e-06
-5.32513e-06
-5.33766e-06
-5.34978e-06
-5.36149e-06
-5.3728e-06
-5.38372e-06
-5.39427e-06
-5.40444e-06
-5.41426e-06
-5.42373e-06
-5.43286e-06
-5.44165e-06
-5.45013e-06
-5.45829e-06
-5.46615e-06
-5.47372e-06
-5.481e-06
-5.488e-06
-5.49473e-06
-5.5012e-06
-5.50742e-06
-5.51339e-06
-5.51913e-06
-5.52463e-06
-5.52991e-06
-5.53498e-06
-5.53983e-06
-5.54448e-06
-5.54893e-06
-5.55318e-06
-5.5573e-06
-5.56123e-06
-5.56499e-06
-5.56859e-06
-5.57202e-06
-5.5753e-06
-5.57844e-06
-5.58142e-06
-5.58427e-06
-5.58699e-06
-5.5896e-06
-5.59208e-06
-5.59445e-06
-5.59671e-06
-5.59886e-06
-5.60091e-06
-5.60286e-06
-5.60472e-06
-5.60649e-06
-5.60817e-06
-5.60977e-06
-5.61129e-06
-5.61274e-06
-5.61411e-06
-5.61542e-06
-5.61666e-06
-5.61783e-06
-5.61895e-06
-5.62e-06
-5.62101e-06
-5.62196e-06
-5.62286e-06
-5.62371e-06
-5.62452e-06
-5.62528e-06
-5.626e-06
-5.62669e-06
-5.62733e-06
-5.62795e-06
-5.62852e-06
-5.62907e-06
-5.62958e-06
-5.63007e-06
-5.63053e-06
-5.63096e-06
-5.63137e-06
-5.63176e-06
-5.63212e-06
-5.63246e-06
-5.63279e-06
-5.63309e-06
-5.63338e-06
-5.63364e-06
-5.6339e-06
-5.63414e-06
-5.63436e-06
-5.63457e-06
-5.63477e-06
-5.63496e-06
-5.63513e-06
-5.6353e-06
-5.63545e-06
-5.6356e-06
-5.63574e-06
-5.63586e-06
-5.63598e-06
-5.63609e-06
-5.6362e-06
-5.6363e-06
-5.63639e-06
-5.63648e-06
-5.63656e-06
-5.63663e-06
-5.63671e-06
-5.63677e-06
-5.63684e-06
-5.63689e-06
-5.63695e-06
-5.637e-06
-5.63705e-06
-5.63709e-06
-5.63713e-06
-5.63717e-06
-5.63721e-06
-5.63724e-06
-5.63727e-06
-5.6373e-06
-5.63733e-06
-5.63735e-06
-5.63738e-06
-5.6374e-06
-5.63742e-06
-5.63744e-06
-5.63745e-06
-5.63747e-06
-5.63748e-06
-5.6375e-06
-5.63751e-06
-5.63752e-06
-5.63753e-06
-5.63754e-06
-5.63755e-06
-5.63756e-06
-5.63756e-06
-5.63757e-06
-5.63757e-06
-5.63758e-06
-5.63758e-06
-5.63758e-06
-5.63759e-06
-5.63759e-06
-5.63759e-06
-5.63759e-06
-5.63759e-06
-5.63759e-06
-5.63759e-06
-5.63758e-06
-5.63758e-06
-5.63758e-06
-5.63758e-06
-5.63757e-06
-5.63757e-06
-5.63757e-06
-5.63756e-06
-5.63756e-06
-5.63755e-06
-5.63755e-06
-5.63754e-06
-5.63754e-06
-5.63753e-06
-5.63753e-06
-5.63752e-06
-5.63751e-06
-5.63751e-06
-5.6375e-06
-5.63749e-06
-5.63749e-06
-5.63748e-06
-5.63747e-06
-5.63746e-06
-5.63745e-06
-5.63744e-06
-5.63744e-06
-5.63743e-06
-5.63742e-06
-5.63741e-06
-5.6374e-06
-5.63739e-06
-5.63738e-06
-5.63737e-06
-5.63736e-06
-5.63735e-06
-5.63734e-06
-5.63733e-06
-5.63732e-06
-5.63731e-06
-5.6373e-06
-5.63729e-06
-5.63728e-06
-5.63727e-06
-5.63726e-06
-5.63725e-06
-5.63724e-06
-5.63723e-06
-5.63722e-06
-5.63721e-06
-5.6372e-06
-5.63719e-06
-5.63718e-06
-5.63717e-06
-5.63716e-06
-5.63715e-06
-5.63714e-06
-5.63713e-06
-5.63712e-06
-5.63711e-06
-5.6371e-06
-5.63709e-06
-5.63708e-06
-5.63707e-06
-5.63706e-06
-5.63705e-06
-5.63704e-06
-5.63703e-06
-5.63702e-06
-5.63701e-06
-5.637e-06
-5.63699e-06
-5.63698e-06
-5.63697e-06
-5.63697e-06
-5.63696e-06
-5.63695e-06
-5.63694e-06
-5.63693e-06
-5.63693e-06
-5.63692e-06
-5.63691e-06
-5.63691e-06
-5.6369e-06
-5.63689e-06
-5.63688e-06
-5.63688e-06
-5.63687e-06
-5.63686e-06
-5.63686e-06
-5.63685e-06
-5.63685e-06
-5.63684e-06
-5.63684e-06
-5.63683e-06
-5.63683e-06
-5.63682e-06
-5.63682e-06
-5.63681e-06
-5.63681e-06
-5.63681e-06
-5.6368e-06
-5.6368e-06
-5.63679e-06
-5.63679e-06
-5.63679e-06
-5.63679e-06
-5.63679e-06
-5.63678e-06
-5.63678e-06
-5.63678e-06
-5.63678e-06
-5.63678e-06
-5.63678e-06
-5.63678e-06
-5.63678e-06
-5.63678e-06
-5.63678e-06
-5.63678e-06
-5.63678e-06
-5.63678e-06
-5.63678e-06
-5.63678e-06
-5.63679e-06
-5.63679e-06
-5.63679e-06
-5.63679e-06
-5.63679e-06
-5.6368e-06
-5.6368e-06
-5.6368e-06
-5.6368e-06
-5.63681e-06
-5.63681e-06
-5.63681e-06
-5.63681e-06
-5.63682e-06
-5.63682e-06
-5.63682e-06
-5.63683e-06
-5.63683e-06
-5.63683e-06
-5.63684e-06
-5.63684e-06
-5.63684e-06
-5.63685e-06
-5.63685e-06
-5.63685e-06
-5.63685e-06
-5.63686e-06
-5.63686e-06
-5.63686e-06
-5.63686e-06
-5.63687e-06
-5.63687e-06
-5.63687e-06
-5.63687e-06
-5.63688e-06
-5.63688e-06
-5.63688e-06
-5.63688e-06
-5.63688e-06
-5.63689e-06
-5.63689e-06
-5.63689e-06
-5.63689e-06
-5.63689e-06
-5.63689e-06
-5.63689e-06
-5.63689e-06
-5.6369e-06
-5.6369e-06
-5.6369e-06
-5.6369e-06
-5.6369e-06
-5.6369e-06
-5.6369e-06
-5.63689e-06
-5.63689e-06
-5.63689e-06
-5.63689e-06
-5.63689e-06
-5.63689e-06
-5.63689e-06
-5.63688e-06
-5.63688e-06
-5.63688e-06
-5.63688e-06
-5.63688e-06
-5.63688e-06
-5.63687e-06
-5.63687e-06
-5.63687e-06
-5.63687e-06
-5.63686e-06
-5.63686e-06
-5.63686e-06
-5.63686e-06
-5.63686e-06
-5.63685e-06
-5.63685e-06
-5.63685e-06
-5.63685e-06
-5.63684e-06
-5.63684e-06
-5.63684e-06
-5.63683e-06
-5.63683e-06
-5.63683e-06
-5.63683e-06
-5.63682e-06
-5.63682e-06
-5.63682e-06
-5.63681e-06
-5.63681e-06
-5.63681e-06
-5.63681e-06
-5.6368e-06
-5.6368e-06
-5.6368e-06
-5.6368e-06
-5.6368e-06
-5.63679e-06
-5.63679e-06
-5.63679e-06
-5.63679e-06
-5.63679e-06
-5.63678e-06
-5.63678e-06
-5.63678e-06
-5.63678e-06
-5.63678e-06
-5.63678e-06
-5.63678e-06
-5.63677e-06
-5.63677e-06
-5.63677e-06
-5.63677e-06
-5.63677e-06
-5.63677e-06
-5.63677e-06
-5.63677e-06
-5.63677e-06
-5.63677e-06
-5.63677e-06
-5.63677e-06
-5.63677e-06
-5.63677e-06
-5.63677e-06
-5.63677e-06
-5.63677e-06
-5.63677e-06
-5.63677e-06
-5.63677e-06
-5.63677e-06
-5.63677e-06
-5.63677e-06
-5.63677e-06
-5.63677e-06
-5.63677e-06
-5.63677e-06
-5.63677e-06
-5.63677e-06
-5.63677e-06
-5.63677e-06
-5.63677e-06
-5.63677e-06
-5.63677e-06
-5.63677e-06
-5.63677e-06
-5.63677e-06
-5.63678e-06
-5.63678e-06
-5.63678e-06
-5.63678e-06
-5.63678e-06
-5.63678e-06
-5.63678e-06
-5.63678e-06
-5.63678e-06
-5.63678e-06
-5.63678e-06
-5.63678e-06
-5.63678e-06
-5.63678e-06
-5.63678e-06
-5.63678e-06
-5.63678e-06
-5.63677e-06
-5.63677e-06
-5.63677e-06
-5.63677e-06
-5.63677e-06
-5.63677e-06
-5.63677e-06
-5.63677e-06
-5.63676e-06
-5.63676e-06
-5.63676e-06
-5.63676e-06
-5.63676e-06
-5.63675e-06
-5.63675e-06
-5.63675e-06
-5.63675e-06
-5.63674e-06
-5.63674e-06
-5.63674e-06
-5.63673e-06
-5.63673e-06
-5.63673e-06
-5.63672e-06
-5.63672e-06
-5.63671e-06
-5.63671e-06
-5.63671e-06
-5.6367e-06
-5.6367e-06
-5.63669e-06
-5.63669e-06
-5.63668e-06
-5.63668e-06
-5.63667e-06
-5.63667e-06
-5.63666e-06
-5.63666e-06
-5.63665e-06
-5.63665e-06
-5.63665e-06
-5.63664e-06
-5.63663e-06
-5.63663e-06
-5.63663e-06
-5.63662e-06
-5.63662e-06
-5.63661e-06
-5.63661e-06
-5.6366e-06
-5.6366e-06
-5.6366e-06
-5.63659e-06
-5.63659e-06
-5.63659e-06
-5.63658e-06
-5.63658e-06
-5.63658e-06
-5.63657e-06
-5.63657e-06
-5.63657e-06
-5.63657e-06
-5.63656e-06
-5.63656e-06
-5.63656e-06
-5.63656e-06
-5.63656e-06
-5.63655e-06
-5.63655e-06
-5.63655e-06
-5.63655e-06
-5.63655e-06
-5.63655e-06
-5.63655e-06
-5.63655e-06
-5.63655e-06
-5.63655e-06
-5.63655e-06
-5.63655e-06
-5.63655e-06
-5.63655e-06
-5.63655e-06
-5.63656e-06
-5.63656e-06
-5.63656e-06
-5.63656e-06
-5.63656e-06
-5.63656e-06
-5.63657e-06
-5.63657e-06
-5.63657e-06
-5.63657e-06
-5.63657e-06
-5.63658e-06
-5.63658e-06
-5.63658e-06
-5.63658e-06
-5.63659e-06
-5.63659e-06
-5.63659e-06
-5.63659e-06
-5.63659e-06
-5.6366e-06
-5.6366e-06
-5.6366e-06
-5.6366e-06
-5.63661e-06
-5.63661e-06
-5.63661e-06
-5.63661e-06
-5.63662e-06
-5.63662e-06
-5.63662e-06
-5.63662e-06
-5.63662e-06
-5.63663e-06
-5.63663e-06
-5.63663e-06
-5.63663e-06
-5.63663e-06
-5.63663e-06
-5.63663e-06
-5.63663e-06
-5.63664e-06
-5.63664e-06
-5.63664e-06
-5.63664e-06
-5.63664e-06
-5.63664e-06
-5.63664e-06
-5.63664e-06
-5.63664e-06
-5.63664e-06
-5.63664e-06
-5.63664e-06
-5.63664e-06
-5.63664e-06
-5.63664e-06
-5.63663e-06
-5.63663e-06
-5.63663e-06
-5.63663e-06
-5.63662e-06
-5.63662e-06
-5.63662e-06
-5.63662e-06
-5.63661e-06
-5.63661e-06
-5.6366e-06
-5.6366e-06
-5.63659e-06
-5.63658e-06
-5.63658e-06
-5.63657e-06
-5.63656e-06
-5.63656e-06
-5.63655e-06
-5.63654e-06
-5.63653e-06
-5.63652e-06
-5.63651e-06
-5.63651e-06
-5.6365e-06
-5.63648e-06
-5.63648e-06
-5.63647e-06
-5.63645e-06
-5.63644e-06
-5.63643e-06
-5.63642e-06
-5.63641e-06
-5.6364e-06
-5.63638e-06
-5.63637e-06
-5.63636e-06
-5.63635e-06
-5.63634e-06
-5.63632e-06
-5.63631e-06
-5.6363e-06
-5.63629e-06
-5.63628e-06
-5.63626e-06
-5.63625e-06
-5.63624e-06
-5.63623e-06
-5.63622e-06
-5.63621e-06
-5.6362e-06
-5.63619e-06
-5.63618e-06
-5.63617e-06
-5.63616e-06
-5.63615e-06
-5.63615e-06
-5.63614e-06
-5.63614e-06
-5.63613e-06
-5.63613e-06
-5.63612e-06
-5.63612e-06
-5.63612e-06
-5.63612e-06
-5.63611e-06
-5.63611e-06
-5.63611e-06
-5.63611e-06
-5.63612e-06
-5.63612e-06
-5.63612e-06
-5.63613e-06
-5.63613e-06
-5.63613e-06
-5.63614e-06
-5.63615e-06
-5.63615e-06
-5.63616e-06
-5.63617e-06
-5.63618e-06
-5.63619e-06
-5.6362e-06
-5.63621e-06
-5.63622e-06
-5.63623e-06
-5.63625e-06
-5.63626e-06
-5.63627e-06
-5.63628e-06
-5.63629e-06
-5.63631e-06
-5.63632e-06
-5.63633e-06
-5.63635e-06
-5.63636e-06
-5.63637e-06
-5.63639e-06
-5.6364e-06
-5.63641e-06
-5.63642e-06
-5.63643e-06
-5.63645e-06
-5.63646e-06
-5.63647e-06
-5.63648e-06
-5.63649e-06
-5.6365e-06
-5.6365e-06
-5.63651e-06
-5.63652e-06
-5.63653e-06
-5.63653e-06
-5.63654e-06
-5.63654e-06
-5.63655e-06
-5.63655e-06
-5.63655e-06
-5.63655e-06
-5.63656e-06
-5.63655e-06
-5.63655e-06
-5.63655e-06
-5.63655e-06
-5.63655e-06
-5.63654e-06
-5.63654e-06
-5.63653e-06
-5.63652e-06
-5.63652e-06
-5.63651e-06
-5.6365e-06
-5.63649e-06
-5.63648e-06
-5.63647e-06
-5.63646e-06
-5.63645e-06
-5.63643e-06
-5.63642e-06
-5.63641e-06
-5.63639e-06
-5.63638e-06
-5.63637e-06
-5.63635e-06
-5.63634e-06
-5.63632e-06
-5.63631e-06
-5.6363e-06
-5.63628e-06
-5.63627e-06
-5.63625e-06
-5.63624e-06
-5.63622e-06
-5.63621e-06
-5.6362e-06
-5.63619e-06
-5.63617e-06
-5.63616e-06
-5.63615e-06
-5.63614e-06
-5.63613e-06
-5.63612e-06
-5.63611e-06
-5.6361e-06
-5.63609e-06
-5.63608e-06
-5.63607e-06
-5.63607e-06
-5.63606e-06
-5.63605e-06
-5.63605e-06
-5.63605e-06
-5.63604e-06
-5.63604e-06
-5.63604e-06
-5.63604e-06
-5.63604e-06
-5.63604e-06
-5.63605e-06
-5.63605e-06
-5.63606e-06
-5.63607e-06
-5.63608e-06
-5.63609e-06
-5.6361e-06
-5.63611e-06
-5.63613e-06
-5.63615e-06
-5.63618e-06
-5.6362e-06
-5.63623e-06
-5.63627e-06
-5.63631e-06
-5.63635e-06
-5.6364e-06
-5.63646e-06
-5.63653e-06
-5.6366e-06
-5.63669e-06
-5.63679e-06
-5.6369e-06
-5.63703e-06
-5.63717e-06
-5.63734e-06
-5.63753e-06
-5.63774e-06
-5.63798e-06
-5.63825e-06
-5.63856e-06
-5.63891e-06
-5.63931e-06
-5.63975e-06
-5.64025e-06
-5.64082e-06
-5.64146e-06
-5.64218e-06
-5.64299e-06
-5.64389e-06
-5.64491e-06
-5.64606e-06
-5.64734e-06
-5.64877e-06
-5.65038e-06
-5.65217e-06
-5.65417e-06
-5.6564e-06
-5.65889e-06
-5.66165e-06
-5.66472e-06
-5.66814e-06
-5.67192e-06
-5.67612e-06
-5.68076e-06
-5.68589e-06
-5.69156e-06
-5.69782e-06
-5.70472e-06
-5.71231e-06
-5.72066e-06
-5.72984e-06
-5.7399e-06
-5.75094e-06
-5.76303e-06
-5.77624e-06
-5.79068e-06
-5.80644e-06
-5.82362e-06
-5.84233e-06
-5.86268e-06
-5.88478e-06
-5.90877e-06
-5.93478e-06
-5.96294e-06
-5.99339e-06
-6.0263e-06
-6.0618e-06
-6.10008e-06
-6.1413e-06
-6.18562e-06
-6.23325e-06
-6.28436e-06
-6.33916e-06
-6.39783e-06
-6.4606e-06
-6.52767e-06
-6.59927e-06
-6.6756e-06
-6.75692e-06
-6.84345e-06
-6.93543e-06
-7.0331e-06
-7.13673e-06
-7.24655e-06
-7.36283e-06
-7.48583e-06
-7.61582e-06
-7.75307e-06
-7.89786e-06
-8.05045e-06
-8.21114e-06
-8.38021e-06
-8.55795e-06
-8.74466e-06
-8.94063e-06
-9.14617e-06
-9.36158e-06
-9.58719e-06
-9.8233e-06
-1.00703e-05
-1.03284e-05
-1.0598e-05
-1.08795e-05
-1.11732e-05
-1.14795e-05
-1.17988e-05
-1.21315e-05
-1.2478e-05
-1.28388e-05
-1.32142e-05
-1.36048e-05
-1.40112e-05
-1.44338e-05
-1.48732e-05
-1.533e-05
-1.5805e-05
-1.62989e-05
-1.68127e-05
-1.7342e-05
-1.78931e-05
-1.84697e-05
-1.90713e-05
-1.96982e-05
-2.03511e-05
-2.10309e-05
-2.17387e-05
-2.24754e-05
-2.32417e-05
-2.4038e-05
-2.48637e-05
-2.5717e-05
-2.65941e-05
-2.74878e-05
-2.83863e-05
-2.92696e-05
-3.01056e-05
-3.08424e-05
-3.13964e-05
)
;

boundaryField
{
    fixedWall
    {
        type            calculated;
        value           uniform 0;
    }
    outlet
    {
        type            calculated;
        value           uniform -3.16317e-05;
    }
    defaultFaces
    {
        type            empty;
    }
}


// ************************************************************************* //
