/*--------------------------------*- C++ -*----------------------------------*\
| =========                 |                                                 |
| \\      /  F ield         | OpenFOAM: The Open Source CFD Toolbox           |
|  \\    /   O peration     | Version:  2406                                  |
|   \\  /    A nd           | Website:  www.openfoam.com                      |
|    \\/     M anipulation  |                                                 |
\*---------------------------------------------------------------------------*/
FoamFile
{
    version     2.0;
    format      ascii;
    arch        "LSB;label=32;scalar=64";
    class       volScalarField;
    location    "8";
    object      Qdot;
}
// * * * * * * * * * * * * * * * * * * * * * * * * * * * * * * * * * * * * * //

dimensions      [1 -1 -3 0 0 0 0];

internalField   nonuniform List<scalar> 
1000
(
-1.90046e-18
-6.59572e-17
-1.09338e-15
3.80442e-09
3.11611e-08
1.48591e-07
6.02597e-07
1.91575e-06
5.28421e-06
1.29239e-05
2.85972e-05
5.81468e-05
0.000110039
0.000195749
0.000330041
0.000530998
0.000819811
0.00122034
0.00175846
0.00246119
0.00335574
0.00446847
0.00582384
0.0074434
0.00934494
0.0115417
0.0140419
0.0168481
0.0199574
0.0233611
0.0270452
0.0309904
0.0351732
0.0395657
0.0441371
0.0488541
0.0536814
0.0585831
0.0635229
0.0684652
0.0733755
0.0782208
0.0829706
0.0875969
0.0920743
0.0963808
0.100497
0.104408
0.108101
0.111567
0.114798
0.117792
0.120548
0.123066
0.125351
0.127407
0.129242
0.130863
0.13228
0.133504
0.134545
0.135415
0.136124
0.136686
0.137111
0.137412
0.137599
0.137684
0.137678
0.137589
0.137429
0.137207
0.13693
0.136607
0.136246
0.135853
0.135435
0.134997
0.134545
0.134084
0.133618
0.133151
0.132687
0.132227
0.131776
0.131336
0.130908
0.130494
0.130096
0.129716
0.129353
0.129009
0.128684
0.12838
0.128095
0.127831
0.127587
0.127364
0.12716
0.126977
0.126813
0.126668
0.126542
0.126434
0.126344
0.126272
0.126216
0.126177
0.126153
0.126144
0.12615
0.126169
0.126202
0.126248
0.126305
0.126375
0.126455
0.126546
0.126647
0.126757
0.126877
0.127004
0.12714
0.127284
0.127435
0.127592
0.127756
0.127926
0.128102
0.128283
0.128469
0.12866
0.128856
0.129055
0.129258
0.129464
0.129675
0.129888
0.130104
0.130324
0.130546
0.130771
0.130998
0.131227
0.131458
0.131691
0.131926
0.132162
0.1324
0.13264
0.132881
0.133123
0.133366
0.133611
0.133856
0.134103
0.13435
0.134599
0.134848
0.135099
0.13535
0.135602
0.135855
0.136108
0.136362
0.136617
0.136872
0.137129
0.137385
0.137643
0.137901
0.13816
0.138419
0.138679
0.138939
0.139201
0.139462
0.139725
0.139987
0.140251
0.140515
0.14078
0.141045
0.141311
0.141578
0.141845
0.142113
0.142381
0.14265
0.14292
0.14319
0.143461
0.143732
0.144005
0.144278
0.144551
0.144825
0.1451
0.145376
0.145652
0.145929
0.146207
0.146485
0.146764
0.147044
0.147324
0.147603
0.147885
0.148168
0.148451
0.148736
0.149021
0.149306
0.149593
0.14988
0.150168
0.150456
0.150746
0.151036
0.151327
0.151618
0.151911
0.152204
0.152498
0.152793
0.153088
0.153385
0.153682
0.15398
0.154279
0.154578
0.154878
0.15518
0.155481
0.155784
0.156088
0.156392
0.156698
0.157004
0.15731
0.157618
0.157927
0.158236
0.158546
0.158858
0.159169
0.159482
0.159796
0.16011
0.160426
0.160742
0.161059
0.161377
0.161696
0.162016
0.162336
0.162658
0.16298
0.163304
0.163628
0.163953
0.164279
0.164606
0.164934
0.165262
0.165592
0.165923
0.166254
0.166586
0.16692
0.167254
0.167589
0.167926
0.168263
0.168601
0.16894
0.16928
0.169621
0.169963
0.170306
0.17065
0.170994
0.17134
0.171687
0.172035
0.172384
0.172734
0.173085
0.173437
0.173789
0.174143
0.174498
0.174854
0.175211
0.175569
0.175928
0.176288
0.17665
0.177011
0.177372
0.177736
0.178102
0.178468
0.178836
0.179204
0.179574
0.179945
0.180317
0.18069
0.181065
0.18144
0.181816
0.182194
0.182573
0.182953
0.183333
0.183716
0.184099
0.184483
0.184869
0.185256
0.185644
0.186033
0.186423
0.186814
0.187207
0.187601
0.187996
0.188392
0.18879
0.189188
0.189588
0.18999
0.190392
0.190796
0.191201
0.191607
0.192014
0.192423
0.192833
0.193244
0.193657
0.19407
0.194485
0.194902
0.19532
0.195739
0.196159
0.196581
0.197004
0.197428
0.197854
0.198281
0.19871
0.19914
0.199571
0.200004
0.200438
0.200874
0.201311
0.201749
0.202189
0.20263
0.203073
0.203517
0.203963
0.20441
0.204859
0.205309
0.20576
0.206213
0.206668
0.207124
0.207582
0.208041
0.208502
0.208964
0.209428
0.209894
0.210361
0.210829
0.211299
0.211771
0.212245
0.21272
0.213196
0.213675
0.214155
0.214636
0.215119
0.215604
0.216091
0.216579
0.217069
0.217561
0.218054
0.218549
0.219046
0.219544
0.220044
0.220546
0.22105
0.221555
0.222062
0.222571
0.223081
0.223594
0.224108
0.224624
0.225141
0.225661
0.226182
0.226705
0.22723
0.227757
0.228286
0.228816
0.229348
0.229881
0.230414
0.230952
0.231492
0.232034
0.232578
0.233124
0.233671
0.234221
0.234772
0.235325
0.235881
0.236438
0.236997
0.237558
0.238121
0.238684
0.239248
0.239816
0.240386
0.240959
0.241533
0.24211
0.242688
0.243269
0.243852
0.244436
0.245023
0.245612
0.246203
0.246796
0.247391
0.247989
0.248588
0.24919
0.249794
0.2504
0.251008
0.251618
0.252231
0.252846
0.253463
0.254082
0.254704
0.255327
0.255953
0.256582
0.257212
0.257845
0.258481
0.259118
0.259758
0.260401
0.261045
0.261693
0.262342
0.262994
0.263648
0.264305
0.264965
0.265626
0.266291
0.266957
0.267627
0.268298
0.268973
0.26965
0.270329
0.271011
0.271696
0.272383
0.273073
0.273765
0.27446
0.275158
0.275859
0.276562
0.277268
0.277976
0.278687
0.279401
0.280118
0.280838
0.28156
0.282285
0.283013
0.283744
0.284478
0.285214
0.285954
0.286696
0.287441
0.288186
0.288932
0.289686
0.290443
0.291204
0.291967
0.292733
0.293502
0.294274
0.295049
0.295828
0.296609
0.297394
0.298181
0.298972
0.299766
0.300563
0.301364
0.302167
0.302974
0.303784
0.304597
0.305414
0.306234
0.307057
0.307884
0.308714
0.309547
0.310384
0.311224
0.312068
0.312915
0.313765
0.314619
0.315477
0.316337
0.317202
0.31807
0.318942
0.319817
0.320696
0.321578
0.322464
0.323354
0.324247
0.325144
0.326045
0.326947
0.327849
0.328761
0.329677
0.330596
0.331519
0.332446
0.333376
0.334311
0.335249
0.336192
0.337138
0.338088
0.339043
0.340001
0.340963
0.341929
0.3429
0.343874
0.344853
0.345835
0.346822
0.347813
0.348808
0.349808
0.350812
0.35182
0.352832
0.353848
0.354869
0.355895
0.356924
0.357959
0.358997
0.36004
0.361088
0.36214
0.363197
0.364258
0.365324
0.366395
0.367471
0.368551
0.369636
0.370725
0.37182
0.372919
0.374023
0.375133
0.376247
0.377366
0.37849
0.379619
0.380753
0.381893
0.383037
0.384187
0.385342
0.386502
0.387667
0.388838
0.390014
0.391195
0.392382
0.393574
0.394772
0.395975
0.397184
0.398398
0.399618
0.400843
0.402074
0.403302
0.404545
0.405793
0.407047
0.408307
0.409573
0.410845
0.412123
0.413406
0.414696
0.415993
0.417295
0.418603
0.419918
0.421238
0.422565
0.423899
0.425238
0.426585
0.427937
0.429296
0.430662
0.432034
0.433412
0.434798
0.43619
0.437588
0.438994
0.440406
0.441825
0.443252
0.444685
0.446125
0.447572
0.449026
0.450488
0.451957
0.453432
0.454916
0.456406
0.457904
0.45941
0.460923
0.462443
0.463971
0.465507
0.46705
0.468601
0.47016
0.471727
0.473301
0.474884
0.476474
0.478073
0.479679
0.481294
0.482917
0.484548
0.486187
0.487835
0.489491
0.491155
0.492828
0.494509
0.496199
0.497897
0.499604
0.501319
0.503031
0.504763
0.506504
0.508253
0.510012
0.51178
0.513557
0.515343
0.517138
0.518943
0.520756
0.522579
0.524411
0.526253
0.528104
0.529965
0.531835
0.533715
0.535605
0.537504
0.539413
0.541333
0.543262
0.545201
0.547151
0.549111
0.551081
0.553061
0.555052
0.557053
0.559066
0.561088
0.563122
0.565167
0.567222
0.569289
0.571367
0.573456
0.575557
0.577669
0.579793
0.581929
0.584076
0.586236
0.588407
0.59059
0.592786
0.594994
0.597215
0.599448
0.601694
0.603953
0.606225
0.60851
0.610808
0.613119
0.615444
0.617782
0.620134
0.622499
0.624879
0.627273
0.629673
0.632079
0.634515
0.636966
0.639431
0.641911
0.644406
0.646915
0.64944
0.65198
0.654535
0.657105
0.659691
0.662293
0.66491
0.667543
0.670193
0.672858
0.67554
0.678237
0.680952
0.683683
0.68643
0.689195
0.691976
0.694774
0.697589
0.700422
0.703272
0.706139
0.709024
0.711927
0.714847
0.717786
0.720742
0.723717
0.72671
0.729721
0.732751
0.735799
0.738866
0.741953
0.745058
0.748182
0.751326
0.754489
0.757672
0.760874
0.764097
0.767339
0.770601
0.773884
0.777187
0.780511
0.783856
0.787222
0.790609
0.794017
0.797447
0.800898
0.804371
0.807867
0.811384
0.814925
0.818487
0.822073
0.825683
0.829316
0.832952
0.836611
0.840318
0.844048
0.847802
0.851581
0.855384
0.859212
0.863065
0.866944
0.870849
0.874781
0.878738
0.882723
0.886734
0.890773
0.89484
0.898935
0.903058
0.90721
0.911392
0.915604
0.919846
0.924102
0.928377
0.932707
0.937065
0.941454
0.945876
0.950301
0.954755
0.959266
0.963809
0.968384
0.972991
0.977631
0.982305
0.987011
0.991752
0.996526
1.00134
1.00618
1.01106
1.01597
1.02092
1.02591
1.03093
1.03599
1.04108
1.04621
1.05138
1.05659
1.06184
1.06712
1.07244
1.0778
1.0832
1.08865
1.09413
1.09965
1.10521
1.11081
1.11646
1.12214
1.12787
1.13365
1.13947
1.14533
1.15124
1.1572
1.16321
1.16927
1.17538
1.18155
1.18778
1.19407
1.20042
1.20684
1.21334
1.21992
1.22658
1.23333
1.24018
1.24715
1.25423
1.26145
1.26882
1.27634
1.28405
1.29196
1.30009
1.30847
1.31713
1.32609
1.3354
1.34508
1.35519
1.36576
1.37685
1.38852
1.40082
1.41383
1.4276
1.44222
1.45776
1.47432
1.49197
1.51082
1.53096
1.55249
1.57551
1.60012
1.62641
1.65449
1.68442
1.71628
1.75013
1.78601
1.82391
1.86381
1.90564
1.94928
1.99454
2.04117
2.08882
2.13704
2.1853
2.23291
2.27907
2.32284
2.36311
2.39864
2.42805
2.44984
2.4624
2.46406
2.45315
2.42807
2.38735
2.32978
2.2545
2.16112
2.04983
1.9215
1.77775
1.62097
1.45431
1.28159
1.10712
0.935507
0.771321
0.618807
0.481714
0.363847
0.26355
0.182801
0.120715
0.0753771
0.0441417
0.0240038
0.0119747
0.00539913
0.00215964
0.000748669
0.000218333
5.1542e-05
9.36345e-06
1.22264e-06
1.04427e-07
5.70673e-09
5.61399e-10
-1.56509e-18
0
)
;

boundaryField
{
    fixedWall
    {
        type            calculated;
        value           uniform 0;
    }
    outlet
    {
        type            calculated;
        value           uniform 0;
    }
    defaultFaces
    {
        type            empty;
    }
}


// ************************************************************************* //
