/*--------------------------------*- C++ -*----------------------------------*\
| =========                 |                                                 |
| \\      /  F ield         | OpenFOAM: The Open Source CFD Toolbox           |
|  \\    /   O peration     | Version:  2406                                  |
|   \\  /    A nd           | Website:  www.openfoam.com                      |
|    \\/     M anipulation  |                                                 |
\*---------------------------------------------------------------------------*/
FoamFile
{
    version     2.0;
    format      ascii;
    arch        "LSB;label=32;scalar=64";
    class       volScalarField;
    location    "8";
    object      T;
}
// * * * * * * * * * * * * * * * * * * * * * * * * * * * * * * * * * * * * * //

dimensions      [0 0 0 1 0 0 0];

internalField   nonuniform List<scalar> 
1000
(
307.471
333.86
358.077
380.501
401.408
421.01
439.47
456.921
473.47
489.206
504.203
518.525
532.226
545.355
557.951
570.051
581.687
592.888
603.679
614.082
624.12
633.81
643.169
652.214
660.958
669.415
677.598
685.517
693.183
700.606
707.795
714.759
721.506
728.043
734.379
740.519
746.469
752.238
757.829
763.248
768.502
773.595
778.531
783.316
787.954
792.45
796.806
801.028
805.12
809.084
812.925
816.646
820.25
823.741
827.122
830.396
833.565
836.633
839.603
842.477
845.258
847.948
850.551
853.068
855.501
857.854
860.128
862.326
864.45
866.502
868.483
870.397
872.244
874.028
875.749
877.409
879.011
880.556
882.046
883.482
884.866
886.199
887.484
888.721
889.912
891.059
892.162
893.224
894.245
895.227
896.172
897.079
897.951
898.789
899.594
900.366
901.108
901.82
902.503
903.157
903.785
904.387
904.964
905.517
906.046
906.553
907.038
907.502
907.946
908.371
908.777
909.165
909.536
909.89
910.228
910.551
910.86
911.154
911.434
911.702
911.957
912.2
912.431
912.652
912.861
913.061
913.251
913.432
913.604
913.767
913.922
914.069
914.209
914.342
914.468
914.587
914.701
914.808
914.91
915.007
915.098
915.185
915.267
915.344
915.417
915.487
915.552
915.614
915.672
915.728
915.78
915.829
915.875
915.918
915.959
915.998
916.034
916.069
916.101
916.131
916.159
916.186
916.211
916.234
916.256
916.277
916.296
916.314
916.331
916.347
916.362
916.376
916.389
916.401
916.412
916.422
916.432
916.441
916.449
916.457
916.464
916.47
916.477
916.482
916.487
916.492
916.497
916.501
916.504
916.508
916.511
916.513
916.516
916.518
916.52
916.522
916.524
916.525
916.526
916.527
916.528
916.529
916.53
916.53
916.53
916.531
916.531
916.531
916.531
916.531
916.531
916.531
916.53
916.53
916.53
916.529
916.529
916.528
916.528
916.527
916.526
916.526
916.525
916.524
916.524
916.523
916.522
916.521
916.521
916.52
916.519
916.518
916.517
916.517
916.516
916.515
916.514
916.513
916.512
916.512
916.511
916.51
916.509
916.508
916.508
916.507
916.506
916.505
916.504
916.504
916.503
916.502
916.502
916.501
916.5
916.499
916.499
916.498
916.497
916.497
916.496
916.496
916.495
916.494
916.494
916.493
916.493
916.492
916.492
916.491
916.491
916.49
916.49
916.489
916.489
916.489
916.488
916.488
916.488
916.487
916.487
916.487
916.486
916.486
916.486
916.486
916.485
916.485
916.485
916.485
916.485
916.485
916.485
916.484
916.484
916.484
916.484
916.484
916.484
916.484
916.484
916.484
916.484
916.484
916.484
916.484
916.485
916.485
916.485
916.485
916.485
916.485
916.485
916.486
916.486
916.486
916.486
916.486
916.487
916.487
916.487
916.487
916.488
916.488
916.488
916.489
916.489
916.489
916.49
916.49
916.49
916.491
916.491
916.491
916.492
916.492
916.492
916.493
916.493
916.494
916.494
916.494
916.495
916.495
916.496
916.496
916.496
916.497
916.497
916.498
916.498
916.498
916.499
916.499
916.5
916.5
916.5
916.501
916.501
916.501
916.502
916.502
916.503
916.503
916.503
916.504
916.504
916.504
916.505
916.505
916.505
916.506
916.506
916.506
916.506
916.507
916.507
916.507
916.508
916.508
916.508
916.508
916.509
916.509
916.509
916.509
916.509
916.51
916.51
916.51
916.51
916.51
916.51
916.51
916.511
916.511
916.511
916.511
916.511
916.511
916.511
916.511
916.511
916.511
916.512
916.512
916.512
916.512
916.512
916.512
916.512
916.512
916.512
916.512
916.512
916.512
916.512
916.512
916.512
916.512
916.512
916.512
916.512
916.512
916.512
916.512
916.512
916.512
916.512
916.512
916.512
916.512
916.512
916.512
916.512
916.512
916.512
916.512
916.512
916.512
916.512
916.512
916.512
916.512
916.512
916.512
916.512
916.512
916.512
916.512
916.512
916.512
916.512
916.512
916.512
916.512
916.512
916.513
916.513
916.513
916.513
916.513
916.513
916.513
916.513
916.513
916.513
916.513
916.513
916.513
916.513
916.513
916.513
916.513
916.514
916.514
916.514
916.514
916.514
916.514
916.514
916.514
916.514
916.514
916.514
916.514
916.514
916.514
916.514
916.514
916.515
916.515
916.515
916.515
916.515
916.515
916.515
916.515
916.515
916.515
916.515
916.515
916.515
916.515
916.515
916.515
916.515
916.515
916.515
916.515
916.515
916.515
916.515
916.515
916.515
916.515
916.515
916.515
916.515
916.515
916.515
916.515
916.515
916.515
916.515
916.515
916.515
916.515
916.515
916.515
916.515
916.515
916.515
916.515
916.515
916.514
916.514
916.514
916.514
916.514
916.514
916.514
916.514
916.514
916.514
916.514
916.514
916.514
916.514
916.514
916.514
916.514
916.514
916.514
916.514
916.514
916.514
916.514
916.514
916.514
916.514
916.514
916.514
916.514
916.514
916.514
916.514
916.514
916.514
916.514
916.514
916.514
916.514
916.514
916.514
916.515
916.515
916.515
916.515
916.515
916.515
916.515
916.515
916.515
916.515
916.515
916.516
916.516
916.516
916.516
916.516
916.516
916.516
916.516
916.517
916.517
916.517
916.517
916.517
916.517
916.517
916.517
916.518
916.518
916.518
916.518
916.518
916.518
916.518
916.518
916.518
916.519
916.519
916.519
916.519
916.519
916.519
916.519
916.519
916.519
916.519
916.519
916.519
916.519
916.519
916.519
916.519
916.519
916.519
916.519
916.519
916.519
916.519
916.519
916.519
916.519
916.519
916.519
916.519
916.519
916.519
916.519
916.519
916.519
916.519
916.519
916.519
916.519
916.518
916.518
916.518
916.518
916.518
916.518
916.518
916.518
916.517
916.517
916.517
916.517
916.517
916.517
916.517
916.516
916.516
916.516
916.516
916.516
916.516
916.515
916.515
916.515
916.515
916.515
916.515
916.514
916.514
916.514
916.514
916.514
916.514
916.514
916.513
916.513
916.513
916.513
916.513
916.513
916.513
916.513
916.513
916.513
916.512
916.512
916.512
916.512
916.512
916.512
916.512
916.512
916.512
916.512
916.513
916.513
916.513
916.513
916.513
916.513
916.513
916.513
916.514
916.514
916.514
916.514
916.514
916.515
916.515
916.515
916.515
916.516
916.516
916.516
916.517
916.517
916.517
916.518
916.518
916.518
916.519
916.519
916.519
916.52
916.52
916.52
916.521
916.521
916.521
916.522
916.522
916.523
916.523
916.523
916.523
916.524
916.524
916.524
916.525
916.525
916.525
916.525
916.526
916.526
916.526
916.526
916.526
916.526
916.526
916.526
916.526
916.527
916.527
916.526
916.526
916.526
916.526
916.526
916.526
916.526
916.526
916.525
916.525
916.525
916.525
916.524
916.524
916.524
916.523
916.523
916.523
916.522
916.522
916.521
916.521
916.521
916.52
916.52
916.519
916.519
916.518
916.518
916.517
916.517
916.516
916.516
916.515
916.515
916.514
916.514
916.513
916.513
916.512
916.512
916.511
916.511
916.51
916.51
916.51
916.509
916.509
916.509
916.508
916.508
916.508
916.507
916.507
916.507
916.507
916.506
916.506
916.506
916.506
916.506
916.506
916.506
916.505
916.505
916.505
916.505
916.505
916.505
916.505
916.505
916.505
916.505
916.506
916.506
916.506
916.506
916.506
916.506
916.506
916.506
916.506
916.506
916.506
916.507
916.507
916.507
916.507
916.507
916.507
916.507
916.507
916.507
916.507
916.507
916.507
916.507
916.507
916.507
916.507
916.506
916.506
916.506
916.505
916.505
916.505
916.504
916.503
916.503
916.502
916.501
916.5
916.498
916.497
916.495
916.493
916.491
916.488
916.486
916.482
916.479
916.475
916.47
916.465
916.459
916.452
916.444
916.436
916.426
916.415
916.403
916.389
916.373
916.356
916.336
916.314
916.289
916.262
916.231
916.197
916.158
916.116
916.068
916.015
915.956
915.891
915.818
915.738
915.649
915.551
915.443
915.323
915.192
915.047
914.887
914.712
914.521
914.31
914.08
913.828
913.554
913.254
912.927
912.572
912.186
911.766
911.312
910.819
910.286
909.71
909.088
908.417
907.695
906.917
906.082
905.185
904.223
903.193
902.09
900.912
899.653
898.31
896.879
895.355
893.734
892.011
890.181
888.24
886.181
884.001
881.693
879.251
876.669
873.942
871.062
868.023
864.816
861.435
857.871
854.114
850.157
845.988
841.597
836.973
832.102
826.971
821.565
815.869
809.866
803.536
796.859
789.812
782.372
774.511
766.201
757.41
748.104
738.244
727.833
716.896
705.125
692.616
679.31
665.146
650.059
633.98
616.837
598.558
579.068
558.295
536.174
512.649
487.678
461.244
433.361
404.082
373.518
341.846
309.339
)
;

boundaryField
{
    fixedWall
    {
        type            fixedValue;
        value           uniform 293;
    }
    outlet
    {
        type            inletOutlet;
        inletValue      uniform 293;
        value           uniform 293;
    }
    defaultFaces
    {
        type            empty;
    }
}


// ************************************************************************* //
