/*--------------------------------*- C++ -*----------------------------------*\
| =========                 |                                                 |
| \\      /  F ield         | OpenFOAM: The Open Source CFD Toolbox           |
|  \\    /   O peration     | Version:  2406                                  |
|   \\  /    A nd           | Website:  www.openfoam.com                      |
|    \\/     M anipulation  |                                                 |
\*---------------------------------------------------------------------------*/
FoamFile
{
    version     2.0;
    format      ascii;
    arch        "LSB;label=32;scalar=64";
    class       volVectorField;
    location    "8";
    object      U;
}
// * * * * * * * * * * * * * * * * * * * * * * * * * * * * * * * * * * * * * //

dimensions      [0 1 -1 0 0 0 0];

internalField   nonuniform List<vector> 
1000
(
(-1.43373e-06 0 0)
(-6.65006e-06 0 0)
(-1.6748e-05 0 0)
(-3.04924e-05 0 0)
(-4.69649e-05 0 0)
(-6.56212e-05 0 0)
(-8.60906e-05 0 0)
(-0.000108076 0 0)
(-0.000131331 0 0)
(-0.000155652 0 0)
(-0.000180869 0 0)
(-0.00020684 0 0)
(-0.000233444 0 0)
(-0.000260575 0 0)
(-0.000288145 0 0)
(-0.000316072 0 0)
(-0.000344287 0 0)
(-0.000372729 0 0)
(-0.000401342 0 0)
(-0.000430078 0 0)
(-0.00045889 0 0)
(-0.000487739 0 0)
(-0.000516589 0 0)
(-0.000545407 0 0)
(-0.000574162 0 0)
(-0.000602825 0 0)
(-0.000631373 0 0)
(-0.000659782 0 0)
(-0.00068803 0 0)
(-0.000716096 0 0)
(-0.000743964 0 0)
(-0.000771616 0 0)
(-0.000799036 0 0)
(-0.00082621 0 0)
(-0.000853124 0 0)
(-0.000879767 0 0)
(-0.000906128 0 0)
(-0.000932195 0 0)
(-0.00095796 0 0)
(-0.000983412 0 0)
(-0.00100855 0 0)
(-0.00103335 0 0)
(-0.00105782 0 0)
(-0.00108196 0 0)
(-0.00110575 0 0)
(-0.00112918 0 0)
(-0.00115227 0 0)
(-0.00117499 0 0)
(-0.00119736 0 0)
(-0.00121936 0 0)
(-0.00124099 0 0)
(-0.00126225 0 0)
(-0.00128315 0 0)
(-0.00130367 0 0)
(-0.00132382 0 0)
(-0.0013436 0 0)
(-0.001363 0 0)
(-0.00138203 0 0)
(-0.00140069 0 0)
(-0.00141898 0 0)
(-0.0014369 0 0)
(-0.00145444 0 0)
(-0.00147162 0 0)
(-0.00148844 0 0)
(-0.00150489 0 0)
(-0.00152098 0 0)
(-0.00153671 0 0)
(-0.00155209 0 0)
(-0.00156711 0 0)
(-0.00158178 0 0)
(-0.00159611 0 0)
(-0.00161009 0 0)
(-0.00162374 0 0)
(-0.00163705 0 0)
(-0.00165002 0 0)
(-0.00166267 0 0)
(-0.00167499 0 0)
(-0.001687 0 0)
(-0.00169869 0 0)
(-0.00171007 0 0)
(-0.00172114 0 0)
(-0.00173191 0 0)
(-0.00174239 0 0)
(-0.00175257 0 0)
(-0.00176247 0 0)
(-0.00177208 0 0)
(-0.00178142 0 0)
(-0.00179048 0 0)
(-0.00179927 0 0)
(-0.00180781 0 0)
(-0.00181608 0 0)
(-0.00182411 0 0)
(-0.00183188 0 0)
(-0.00183942 0 0)
(-0.00184672 0 0)
(-0.00185378 0 0)
(-0.00186062 0 0)
(-0.00186723 0 0)
(-0.00187363 0 0)
(-0.00187982 0 0)
(-0.0018858 0 0)
(-0.00189158 0 0)
(-0.00189716 0 0)
(-0.00190255 0 0)
(-0.00190775 0 0)
(-0.00191277 0 0)
(-0.00191761 0 0)
(-0.00192228 0 0)
(-0.00192678 0 0)
(-0.00193112 0 0)
(-0.0019353 0 0)
(-0.00193932 0 0)
(-0.00194319 0 0)
(-0.00194692 0 0)
(-0.0019505 0 0)
(-0.00195395 0 0)
(-0.00195726 0 0)
(-0.00196044 0 0)
(-0.0019635 0 0)
(-0.00196644 0 0)
(-0.00196926 0 0)
(-0.00197196 0 0)
(-0.00197456 0 0)
(-0.00197705 0 0)
(-0.00197943 0 0)
(-0.00198172 0 0)
(-0.00198391 0 0)
(-0.001986 0 0)
(-0.001988 0 0)
(-0.00198992 0 0)
(-0.00199176 0 0)
(-0.00199352 0 0)
(-0.0019952 0 0)
(-0.00199681 0 0)
(-0.00199835 0 0)
(-0.00199981 0 0)
(-0.00200121 0 0)
(-0.00200255 0 0)
(-0.00200381 0 0)
(-0.00200502 0 0)
(-0.00200618 0 0)
(-0.00200728 0 0)
(-0.00200833 0 0)
(-0.00200933 0 0)
(-0.00201029 0 0)
(-0.00201119 0 0)
(-0.00201205 0 0)
(-0.00201287 0 0)
(-0.00201365 0 0)
(-0.00201439 0 0)
(-0.0020151 0 0)
(-0.00201577 0 0)
(-0.0020164 0 0)
(-0.002017 0 0)
(-0.00201758 0 0)
(-0.00201812 0 0)
(-0.00201863 0 0)
(-0.00201912 0 0)
(-0.00201958 0 0)
(-0.00202001 0 0)
(-0.00202043 0 0)
(-0.00202082 0 0)
(-0.00202119 0 0)
(-0.00202154 0 0)
(-0.00202187 0 0)
(-0.00202218 0 0)
(-0.00202248 0 0)
(-0.00202276 0 0)
(-0.00202302 0 0)
(-0.00202327 0 0)
(-0.0020235 0 0)
(-0.00202372 0 0)
(-0.00202393 0 0)
(-0.00202413 0 0)
(-0.00202431 0 0)
(-0.00202449 0 0)
(-0.00202465 0 0)
(-0.00202481 0 0)
(-0.00202495 0 0)
(-0.00202509 0 0)
(-0.00202522 0 0)
(-0.00202534 0 0)
(-0.00202545 0 0)
(-0.00202556 0 0)
(-0.00202566 0 0)
(-0.00202575 0 0)
(-0.00202584 0 0)
(-0.00202592 0 0)
(-0.002026 0 0)
(-0.00202607 0 0)
(-0.00202614 0 0)
(-0.0020262 0 0)
(-0.00202626 0 0)
(-0.00202632 0 0)
(-0.00202637 0 0)
(-0.00202642 0 0)
(-0.00202646 0 0)
(-0.0020265 0 0)
(-0.00202654 0 0)
(-0.00202658 0 0)
(-0.00202661 0 0)
(-0.00202665 0 0)
(-0.00202668 0 0)
(-0.0020267 0 0)
(-0.00202673 0 0)
(-0.00202675 0 0)
(-0.00202677 0 0)
(-0.00202679 0 0)
(-0.00202681 0 0)
(-0.00202683 0 0)
(-0.00202685 0 0)
(-0.00202686 0 0)
(-0.00202688 0 0)
(-0.00202689 0 0)
(-0.0020269 0 0)
(-0.00202691 0 0)
(-0.00202692 0 0)
(-0.00202693 0 0)
(-0.00202694 0 0)
(-0.00202695 0 0)
(-0.00202695 0 0)
(-0.00202696 0 0)
(-0.00202696 0 0)
(-0.00202697 0 0)
(-0.00202697 0 0)
(-0.00202698 0 0)
(-0.00202698 0 0)
(-0.00202698 0 0)
(-0.00202699 0 0)
(-0.00202699 0 0)
(-0.00202699 0 0)
(-0.00202699 0 0)
(-0.00202699 0 0)
(-0.00202699 0 0)
(-0.00202699 0 0)
(-0.00202699 0 0)
(-0.00202699 0 0)
(-0.00202699 0 0)
(-0.00202699 0 0)
(-0.00202699 0 0)
(-0.00202699 0 0)
(-0.00202699 0 0)
(-0.00202698 0 0)
(-0.00202699 0 0)
(-0.00202698 0 0)
(-0.00202699 0 0)
(-0.00202697 0 0)
(-0.00202698 0 0)
(-0.00202697 0 0)
(-0.00202697 0 0)
(-0.00202697 0 0)
(-0.00202696 0 0)
(-0.00202696 0 0)
(-0.00202696 0 0)
(-0.00202696 0 0)
(-0.00202695 0 0)
(-0.00202695 0 0)
(-0.00202694 0 0)
(-0.00202694 0 0)
(-0.00202694 0 0)
(-0.00202693 0 0)
(-0.00202694 0 0)
(-0.00202693 0 0)
(-0.00202692 0 0)
(-0.00202692 0 0)
(-0.00202692 0 0)
(-0.00202691 0 0)
(-0.00202691 0 0)
(-0.00202691 0 0)
(-0.0020269 0 0)
(-0.0020269 0 0)
(-0.00202689 0 0)
(-0.00202689 0 0)
(-0.00202688 0 0)
(-0.00202688 0 0)
(-0.00202688 0 0)
(-0.00202687 0 0)
(-0.00202687 0 0)
(-0.00202686 0 0)
(-0.00202687 0 0)
(-0.00202686 0 0)
(-0.00202686 0 0)
(-0.00202685 0 0)
(-0.00202685 0 0)
(-0.00202684 0 0)
(-0.00202683 0 0)
(-0.00202684 0 0)
(-0.00202682 0 0)
(-0.00202683 0 0)
(-0.00202682 0 0)
(-0.00202681 0 0)
(-0.00202682 0 0)
(-0.0020268 0 0)
(-0.00202681 0 0)
(-0.0020268 0 0)
(-0.00202679 0 0)
(-0.0020268 0 0)
(-0.00202679 0 0)
(-0.00202679 0 0)
(-0.00202679 0 0)
(-0.00202677 0 0)
(-0.00202678 0 0)
(-0.00202677 0 0)
(-0.00202676 0 0)
(-0.00202677 0 0)
(-0.00202676 0 0)
(-0.00202675 0 0)
(-0.00202676 0 0)
(-0.00202675 0 0)
(-0.00202674 0 0)
(-0.00202675 0 0)
(-0.00202674 0 0)
(-0.00202674 0 0)
(-0.00202674 0 0)
(-0.00202673 0 0)
(-0.00202674 0 0)
(-0.00202672 0 0)
(-0.00202673 0 0)
(-0.00202672 0 0)
(-0.00202671 0 0)
(-0.00202672 0 0)
(-0.00202671 0 0)
(-0.00202671 0 0)
(-0.00202671 0 0)
(-0.00202671 0 0)
(-0.0020267 0 0)
(-0.00202671 0 0)
(-0.0020267 0 0)
(-0.0020267 0 0)
(-0.0020267 0 0)
(-0.00202669 0 0)
(-0.0020267 0 0)
(-0.00202669 0 0)
(-0.00202669 0 0)
(-0.00202669 0 0)
(-0.00202668 0 0)
(-0.00202669 0 0)
(-0.00202669 0 0)
(-0.00202668 0 0)
(-0.00202669 0 0)
(-0.00202668 0 0)
(-0.00202668 0 0)
(-0.00202668 0 0)
(-0.00202668 0 0)
(-0.00202668 0 0)
(-0.00202667 0 0)
(-0.00202668 0 0)
(-0.00202667 0 0)
(-0.00202668 0 0)
(-0.00202667 0 0)
(-0.00202668 0 0)
(-0.00202667 0 0)
(-0.00202668 0 0)
(-0.00202668 0 0)
(-0.00202667 0 0)
(-0.00202668 0 0)
(-0.00202667 0 0)
(-0.00202668 0 0)
(-0.00202668 0 0)
(-0.00202668 0 0)
(-0.00202668 0 0)
(-0.00202668 0 0)
(-0.00202668 0 0)
(-0.00202668 0 0)
(-0.00202668 0 0)
(-0.00202668 0 0)
(-0.00202668 0 0)
(-0.00202668 0 0)
(-0.00202669 0 0)
(-0.00202669 0 0)
(-0.00202669 0 0)
(-0.00202669 0 0)
(-0.00202669 0 0)
(-0.0020267 0 0)
(-0.00202669 0 0)
(-0.0020267 0 0)
(-0.0020267 0 0)
(-0.0020267 0 0)
(-0.0020267 0 0)
(-0.0020267 0 0)
(-0.0020267 0 0)
(-0.00202671 0 0)
(-0.00202671 0 0)
(-0.00202671 0 0)
(-0.00202671 0 0)
(-0.00202671 0 0)
(-0.00202672 0 0)
(-0.00202671 0 0)
(-0.00202672 0 0)
(-0.00202672 0 0)
(-0.00202672 0 0)
(-0.00202672 0 0)
(-0.00202672 0 0)
(-0.00202672 0 0)
(-0.00202673 0 0)
(-0.00202673 0 0)
(-0.00202672 0 0)
(-0.00202673 0 0)
(-0.00202673 0 0)
(-0.00202673 0 0)
(-0.00202673 0 0)
(-0.00202673 0 0)
(-0.00202673 0 0)
(-0.00202673 0 0)
(-0.00202674 0 0)
(-0.00202674 0 0)
(-0.00202674 0 0)
(-0.00202674 0 0)
(-0.00202674 0 0)
(-0.00202674 0 0)
(-0.00202674 0 0)
(-0.00202674 0 0)
(-0.00202674 0 0)
(-0.00202674 0 0)
(-0.00202674 0 0)
(-0.00202674 0 0)
(-0.00202674 0 0)
(-0.00202674 0 0)
(-0.00202674 0 0)
(-0.00202674 0 0)
(-0.00202674 0 0)
(-0.00202674 0 0)
(-0.00202675 0 0)
(-0.00202674 0 0)
(-0.00202674 0 0)
(-0.00202674 0 0)
(-0.00202674 0 0)
(-0.00202675 0 0)
(-0.00202674 0 0)
(-0.00202674 0 0)
(-0.00202674 0 0)
(-0.00202674 0 0)
(-0.00202674 0 0)
(-0.00202673 0 0)
(-0.00202674 0 0)
(-0.00202674 0 0)
(-0.00202673 0 0)
(-0.00202674 0 0)
(-0.00202673 0 0)
(-0.00202673 0 0)
(-0.00202673 0 0)
(-0.00202673 0 0)
(-0.00202673 0 0)
(-0.00202673 0 0)
(-0.00202673 0 0)
(-0.00202673 0 0)
(-0.00202672 0 0)
(-0.00202673 0 0)
(-0.00202672 0 0)
(-0.00202673 0 0)
(-0.00202673 0 0)
(-0.00202672 0 0)
(-0.00202673 0 0)
(-0.00202672 0 0)
(-0.00202673 0 0)
(-0.00202672 0 0)
(-0.00202672 0 0)
(-0.00202672 0 0)
(-0.00202671 0 0)
(-0.00202672 0 0)
(-0.00202671 0 0)
(-0.00202672 0 0)
(-0.00202671 0 0)
(-0.00202671 0 0)
(-0.00202671 0 0)
(-0.00202671 0 0)
(-0.00202671 0 0)
(-0.00202671 0 0)
(-0.00202671 0 0)
(-0.00202671 0 0)
(-0.00202671 0 0)
(-0.0020267 0 0)
(-0.00202671 0 0)
(-0.0020267 0 0)
(-0.00202671 0 0)
(-0.00202671 0 0)
(-0.0020267 0 0)
(-0.00202671 0 0)
(-0.0020267 0 0)
(-0.00202671 0 0)
(-0.0020267 0 0)
(-0.00202671 0 0)
(-0.0020267 0 0)
(-0.0020267 0 0)
(-0.00202671 0 0)
(-0.0020267 0 0)
(-0.0020267 0 0)
(-0.0020267 0 0)
(-0.0020267 0 0)
(-0.0020267 0 0)
(-0.0020267 0 0)
(-0.0020267 0 0)
(-0.0020267 0 0)
(-0.0020267 0 0)
(-0.0020267 0 0)
(-0.0020267 0 0)
(-0.0020267 0 0)
(-0.0020267 0 0)
(-0.0020267 0 0)
(-0.0020267 0 0)
(-0.00202671 0 0)
(-0.0020267 0 0)
(-0.00202671 0 0)
(-0.00202671 0 0)
(-0.0020267 0 0)
(-0.00202671 0 0)
(-0.0020267 0 0)
(-0.00202671 0 0)
(-0.0020267 0 0)
(-0.00202671 0 0)
(-0.0020267 0 0)
(-0.00202671 0 0)
(-0.0020267 0 0)
(-0.00202671 0 0)
(-0.00202671 0 0)
(-0.0020267 0 0)
(-0.00202671 0 0)
(-0.0020267 0 0)
(-0.00202671 0 0)
(-0.00202671 0 0)
(-0.00202671 0 0)
(-0.00202671 0 0)
(-0.00202671 0 0)
(-0.00202671 0 0)
(-0.00202671 0 0)
(-0.00202671 0 0)
(-0.0020267 0 0)
(-0.00202671 0 0)
(-0.00202671 0 0)
(-0.0020267 0 0)
(-0.00202671 0 0)
(-0.0020267 0 0)
(-0.00202671 0 0)
(-0.0020267 0 0)
(-0.00202671 0 0)
(-0.0020267 0 0)
(-0.00202671 0 0)
(-0.00202671 0 0)
(-0.0020267 0 0)
(-0.00202671 0 0)
(-0.0020267 0 0)
(-0.0020267 0 0)
(-0.0020267 0 0)
(-0.0020267 0 0)
(-0.0020267 0 0)
(-0.0020267 0 0)
(-0.0020267 0 0)
(-0.00202669 0 0)
(-0.0020267 0 0)
(-0.00202669 0 0)
(-0.0020267 0 0)
(-0.00202669 0 0)
(-0.00202669 0 0)
(-0.00202669 0 0)
(-0.00202669 0 0)
(-0.00202669 0 0)
(-0.00202668 0 0)
(-0.00202669 0 0)
(-0.00202668 0 0)
(-0.00202669 0 0)
(-0.00202668 0 0)
(-0.00202668 0 0)
(-0.00202668 0 0)
(-0.00202667 0 0)
(-0.00202668 0 0)
(-0.00202667 0 0)
(-0.00202667 0 0)
(-0.00202667 0 0)
(-0.00202667 0 0)
(-0.00202667 0 0)
(-0.00202667 0 0)
(-0.00202666 0 0)
(-0.00202667 0 0)
(-0.00202666 0 0)
(-0.00202667 0 0)
(-0.00202665 0 0)
(-0.00202666 0 0)
(-0.00202666 0 0)
(-0.00202665 0 0)
(-0.00202666 0 0)
(-0.00202665 0 0)
(-0.00202665 0 0)
(-0.00202664 0 0)
(-0.00202665 0 0)
(-0.00202664 0 0)
(-0.00202665 0 0)
(-0.00202664 0 0)
(-0.00202664 0 0)
(-0.00202665 0 0)
(-0.00202664 0 0)
(-0.00202664 0 0)
(-0.00202663 0 0)
(-0.00202664 0 0)
(-0.00202663 0 0)
(-0.00202664 0 0)
(-0.00202663 0 0)
(-0.00202663 0 0)
(-0.00202663 0 0)
(-0.00202663 0 0)
(-0.00202663 0 0)
(-0.00202663 0 0)
(-0.00202663 0 0)
(-0.00202663 0 0)
(-0.00202663 0 0)
(-0.00202663 0 0)
(-0.00202663 0 0)
(-0.00202663 0 0)
(-0.00202663 0 0)
(-0.00202663 0 0)
(-0.00202663 0 0)
(-0.00202663 0 0)
(-0.00202664 0 0)
(-0.00202663 0 0)
(-0.00202664 0 0)
(-0.00202663 0 0)
(-0.00202663 0 0)
(-0.00202664 0 0)
(-0.00202664 0 0)
(-0.00202664 0 0)
(-0.00202664 0 0)
(-0.00202664 0 0)
(-0.00202664 0 0)
(-0.00202664 0 0)
(-0.00202664 0 0)
(-0.00202664 0 0)
(-0.00202664 0 0)
(-0.00202664 0 0)
(-0.00202664 0 0)
(-0.00202665 0 0)
(-0.00202664 0 0)
(-0.00202665 0 0)
(-0.00202665 0 0)
(-0.00202665 0 0)
(-0.00202665 0 0)
(-0.00202665 0 0)
(-0.00202665 0 0)
(-0.00202665 0 0)
(-0.00202665 0 0)
(-0.00202665 0 0)
(-0.00202666 0 0)
(-0.00202665 0 0)
(-0.00202666 0 0)
(-0.00202666 0 0)
(-0.00202666 0 0)
(-0.00202666 0 0)
(-0.00202666 0 0)
(-0.00202666 0 0)
(-0.00202666 0 0)
(-0.00202666 0 0)
(-0.00202666 0 0)
(-0.00202666 0 0)
(-0.00202666 0 0)
(-0.00202666 0 0)
(-0.00202666 0 0)
(-0.00202666 0 0)
(-0.00202666 0 0)
(-0.00202666 0 0)
(-0.00202666 0 0)
(-0.00202666 0 0)
(-0.00202666 0 0)
(-0.00202666 0 0)
(-0.00202666 0 0)
(-0.00202666 0 0)
(-0.00202666 0 0)
(-0.00202666 0 0)
(-0.00202666 0 0)
(-0.00202666 0 0)
(-0.00202666 0 0)
(-0.00202665 0 0)
(-0.00202666 0 0)
(-0.00202665 0 0)
(-0.00202666 0 0)
(-0.00202665 0 0)
(-0.00202666 0 0)
(-0.00202666 0 0)
(-0.00202665 0 0)
(-0.00202666 0 0)
(-0.00202665 0 0)
(-0.00202665 0 0)
(-0.00202664 0 0)
(-0.00202665 0 0)
(-0.00202665 0 0)
(-0.00202664 0 0)
(-0.00202665 0 0)
(-0.00202663 0 0)
(-0.00202664 0 0)
(-0.00202663 0 0)
(-0.00202663 0 0)
(-0.00202663 0 0)
(-0.00202662 0 0)
(-0.00202663 0 0)
(-0.00202661 0 0)
(-0.00202662 0 0)
(-0.00202661 0 0)
(-0.00202661 0 0)
(-0.0020266 0 0)
(-0.0020266 0 0)
(-0.0020266 0 0)
(-0.00202659 0 0)
(-0.00202659 0 0)
(-0.00202659 0 0)
(-0.00202658 0 0)
(-0.00202658 0 0)
(-0.00202658 0 0)
(-0.00202657 0 0)
(-0.00202657 0 0)
(-0.00202656 0 0)
(-0.00202656 0 0)
(-0.00202655 0 0)
(-0.00202655 0 0)
(-0.00202655 0 0)
(-0.00202654 0 0)
(-0.00202654 0 0)
(-0.00202654 0 0)
(-0.00202653 0 0)
(-0.00202653 0 0)
(-0.00202653 0 0)
(-0.00202652 0 0)
(-0.00202652 0 0)
(-0.00202651 0 0)
(-0.00202651 0 0)
(-0.00202651 0 0)
(-0.0020265 0 0)
(-0.00202651 0 0)
(-0.00202649 0 0)
(-0.0020265 0 0)
(-0.0020265 0 0)
(-0.00202649 0 0)
(-0.00202649 0 0)
(-0.00202649 0 0)
(-0.00202648 0 0)
(-0.00202649 0 0)
(-0.00202649 0 0)
(-0.00202648 0 0)
(-0.00202649 0 0)
(-0.00202648 0 0)
(-0.00202649 0 0)
(-0.00202648 0 0)
(-0.00202648 0 0)
(-0.00202649 0 0)
(-0.00202648 0 0)
(-0.00202649 0 0)
(-0.00202649 0 0)
(-0.00202649 0 0)
(-0.00202649 0 0)
(-0.0020265 0 0)
(-0.0020265 0 0)
(-0.0020265 0 0)
(-0.0020265 0 0)
(-0.00202651 0 0)
(-0.00202651 0 0)
(-0.00202651 0 0)
(-0.00202652 0 0)
(-0.00202652 0 0)
(-0.00202652 0 0)
(-0.00202653 0 0)
(-0.00202653 0 0)
(-0.00202653 0 0)
(-0.00202654 0 0)
(-0.00202654 0 0)
(-0.00202655 0 0)
(-0.00202655 0 0)
(-0.00202656 0 0)
(-0.00202656 0 0)
(-0.00202657 0 0)
(-0.00202657 0 0)
(-0.00202657 0 0)
(-0.00202658 0 0)
(-0.00202658 0 0)
(-0.00202659 0 0)
(-0.00202659 0 0)
(-0.0020266 0 0)
(-0.0020266 0 0)
(-0.0020266 0 0)
(-0.00202661 0 0)
(-0.00202661 0 0)
(-0.00202661 0 0)
(-0.00202662 0 0)
(-0.00202662 0 0)
(-0.00202662 0 0)
(-0.00202663 0 0)
(-0.00202663 0 0)
(-0.00202663 0 0)
(-0.00202663 0 0)
(-0.00202663 0 0)
(-0.00202663 0 0)
(-0.00202663 0 0)
(-0.00202663 0 0)
(-0.00202663 0 0)
(-0.00202663 0 0)
(-0.00202663 0 0)
(-0.00202663 0 0)
(-0.00202663 0 0)
(-0.00202663 0 0)
(-0.00202662 0 0)
(-0.00202662 0 0)
(-0.00202663 0 0)
(-0.00202662 0 0)
(-0.00202662 0 0)
(-0.00202662 0 0)
(-0.00202661 0 0)
(-0.00202661 0 0)
(-0.0020266 0 0)
(-0.0020266 0 0)
(-0.00202659 0 0)
(-0.00202659 0 0)
(-0.00202659 0 0)
(-0.00202658 0 0)
(-0.00202658 0 0)
(-0.00202657 0 0)
(-0.00202657 0 0)
(-0.00202656 0 0)
(-0.00202656 0 0)
(-0.00202655 0 0)
(-0.00202654 0 0)
(-0.00202654 0 0)
(-0.00202653 0 0)
(-0.00202653 0 0)
(-0.00202652 0 0)
(-0.00202652 0 0)
(-0.00202651 0 0)
(-0.00202651 0 0)
(-0.0020265 0 0)
(-0.00202649 0 0)
(-0.00202649 0 0)
(-0.00202648 0 0)
(-0.00202648 0 0)
(-0.00202647 0 0)
(-0.00202647 0 0)
(-0.00202647 0 0)
(-0.00202646 0 0)
(-0.00202646 0 0)
(-0.00202646 0 0)
(-0.00202645 0 0)
(-0.00202645 0 0)
(-0.00202645 0 0)
(-0.00202644 0 0)
(-0.00202644 0 0)
(-0.00202644 0 0)
(-0.00202643 0 0)
(-0.00202644 0 0)
(-0.00202642 0 0)
(-0.00202643 0 0)
(-0.00202643 0 0)
(-0.00202642 0 0)
(-0.00202643 0 0)
(-0.00202642 0 0)
(-0.00202643 0 0)
(-0.00202642 0 0)
(-0.00202643 0 0)
(-0.00202643 0 0)
(-0.00202643 0 0)
(-0.00202643 0 0)
(-0.00202643 0 0)
(-0.00202644 0 0)
(-0.00202644 0 0)
(-0.00202644 0 0)
(-0.00202645 0 0)
(-0.00202645 0 0)
(-0.00202646 0 0)
(-0.00202647 0 0)
(-0.00202648 0 0)
(-0.00202649 0 0)
(-0.0020265 0 0)
(-0.00202651 0 0)
(-0.00202652 0 0)
(-0.00202654 0 0)
(-0.00202656 0 0)
(-0.00202658 0 0)
(-0.0020266 0 0)
(-0.00202663 0 0)
(-0.00202666 0 0)
(-0.0020267 0 0)
(-0.00202674 0 0)
(-0.00202678 0 0)
(-0.00202683 0 0)
(-0.00202689 0 0)
(-0.00202696 0 0)
(-0.00202703 0 0)
(-0.00202712 0 0)
(-0.00202722 0 0)
(-0.00202733 0 0)
(-0.00202745 0 0)
(-0.00202759 0 0)
(-0.00202775 0 0)
(-0.00202792 0 0)
(-0.00202813 0 0)
(-0.00202835 0 0)
(-0.0020286 0 0)
(-0.00202889 0 0)
(-0.00202921 0 0)
(-0.00202957 0 0)
(-0.00202997 0 0)
(-0.00203042 0 0)
(-0.00203093 0 0)
(-0.00203149 0 0)
(-0.00203212 0 0)
(-0.00203282 0 0)
(-0.0020336 0 0)
(-0.00203446 0 0)
(-0.00203543 0 0)
(-0.0020365 0 0)
(-0.00203769 0 0)
(-0.002039 0 0)
(-0.00204046 0 0)
(-0.00204207 0 0)
(-0.00204385 0 0)
(-0.00204581 0 0)
(-0.00204797 0 0)
(-0.00205035 0 0)
(-0.00205296 0 0)
(-0.00205583 0 0)
(-0.00205898 0 0)
(-0.00206243 0 0)
(-0.0020662 0 0)
(-0.00207033 0 0)
(-0.00207483 0 0)
(-0.00207974 0 0)
(-0.00208509 0 0)
(-0.00209091 0 0)
(-0.00209723 0 0)
(-0.00210409 0 0)
(-0.00211152 0 0)
(-0.00211957 0 0)
(-0.00212827 0 0)
(-0.00213766 0 0)
(-0.0021478 0 0)
(-0.00215871 0 0)
(-0.00217045 0 0)
(-0.00218307 0 0)
(-0.0021966 0 0)
(-0.0022111 0 0)
(-0.00222662 0 0)
(-0.00224321 0 0)
(-0.00226092 0 0)
(-0.00227979 0 0)
(-0.00229988 0 0)
(-0.00232124 0 0)
(-0.00234392 0 0)
(-0.00236796 0 0)
(-0.00239341 0 0)
(-0.00242032 0 0)
(-0.00244872 0 0)
(-0.00247867 0 0)
(-0.00251019 0 0)
(-0.00254333 0 0)
(-0.00257811 0 0)
(-0.00261456 0 0)
(-0.0026527 0 0)
(-0.00269255 0 0)
(-0.00273412 0 0)
(-0.00277741 0 0)
(-0.00282243 0 0)
(-0.00286916 0 0)
(-0.00291759 0 0)
(-0.00296768 0 0)
(-0.00301941 0 0)
(-0.00307272 0 0)
(-0.00312756 0 0)
(-0.00318387 0 0)
(-0.00324155 0 0)
(-0.00330052 0 0)
(-0.00336068 0 0)
(-0.00342189 0 0)
(-0.00348402 0 0)
(-0.00354692 0 0)
(-0.00361042 0 0)
(-0.00367432 0 0)
(-0.00373843 0 0)
(-0.00380251 0 0)
(-0.00386631 0 0)
(-0.00392956 0 0)
(-0.00399196 0 0)
(-0.00405318 0 0)
(-0.00411287 0 0)
(-0.00417063 0 0)
(-0.00422608 0 0)
(-0.00427878 0 0)
(-0.00432827 0 0)
(-0.00437395 0 0)
(-0.00441502 0 0)
(-0.00445098 0 0)
(-0.00448143 0 0)
(-0.00450563 0 0)
(-0.00452285 0 0)
(-0.00453141 0 0)
(-0.0045308 0 0)
(-0.00451959 0 0)
(-0.00449636 0 0)
(-0.00446002 0 0)
(-0.00440859 0 0)
(-0.00434045 0 0)
(-0.00425352 0 0)
(-0.00414551 0 0)
(-0.00401452 0 0)
(-0.00385887 0 0)
(-0.00367603 0 0)
(-0.00345175 0 0)
(-0.00315783 0 0)
(-0.00284838 0 0)
)
;

boundaryField
{
    fixedWall
    {
        type            fixedValue;
        value           uniform (0 0 0);
    }
    outlet
    {
        type            pressureInletOutletVelocity;
        value           uniform (-0.00284838 0 0);
    }
    defaultFaces
    {
        type            empty;
    }
}


// ************************************************************************* //
