/*--------------------------------*- C++ -*----------------------------------*\
| =========                 |                                                 |
| \\      /  F ield         | OpenFOAM: The Open Source CFD Toolbox           |
|  \\    /   O peration     | Version:  2406                                  |
|   \\  /    A nd           | Website:  www.openfoam.com                      |
|    \\/     M anipulation  |                                                 |
\*---------------------------------------------------------------------------*/
FoamFile
{
    version     2.0;
    format      ascii;
    arch        "LSB;label=32;scalar=64";
    class       volScalarField;
    location    "1.9";
    object      CO2;
}
// * * * * * * * * * * * * * * * * * * * * * * * * * * * * * * * * * * * * * //

dimensions      [0 0 0 0 0 0 0];

internalField   nonuniform List<scalar> 
1000
(
0.0709257
0.0709257
0.0709257
0.0709257
0.0709257
0.0709257
0.0709257
0.0709257
0.0709257
0.0709257
0.0709257
0.0709257
0.0709257
0.0709257
0.0709257
0.0709257
0.0709258
0.0709258
0.0709258
0.0709258
0.0709258
0.0709258
0.0709258
0.0709259
0.0709259
0.0709259
0.0709259
0.0709259
0.0709259
0.0709259
0.0709259
0.070926
0.070926
0.070926
0.070926
0.070926
0.070926
0.070926
0.070926
0.070926
0.070926
0.070926
0.070926
0.070926
0.070926
0.070926
0.070926
0.070926
0.070926
0.070926
0.070926
0.070926
0.070926
0.070926
0.070926
0.070926
0.070926
0.070926
0.070926
0.070926
0.070926
0.070926
0.070926
0.070926
0.070926
0.070926
0.070926
0.070926
0.0709259
0.0709259
0.0709259
0.0709259
0.0709259
0.0709259
0.0709259
0.0709259
0.0709259
0.0709259
0.0709259
0.0709259
0.0709259
0.0709259
0.0709259
0.0709259
0.0709259
0.0709259
0.0709259
0.0709259
0.0709258
0.0709258
0.0709258
0.0709258
0.0709258
0.0709258
0.0709258
0.0709258
0.0709258
0.0709258
0.0709258
0.0709258
0.0709258
0.0709258
0.0709258
0.0709258
0.0709258
0.0709257
0.0709257
0.0709257
0.0709257
0.0709257
0.0709257
0.0709257
0.0709257
0.0709257
0.0709257
0.0709257
0.0709257
0.0709257
0.0709257
0.0709257
0.0709256
0.0709256
0.0709256
0.0709256
0.0709256
0.0709256
0.0709256
0.0709256
0.0709256
0.0709256
0.0709256
0.0709256
0.0709255
0.0709255
0.0709255
0.0709255
0.0709255
0.0709255
0.0709255
0.0709255
0.0709255
0.0709255
0.0709255
0.0709254
0.0709254
0.0709254
0.0709254
0.0709254
0.0709254
0.0709254
0.0709254
0.0709254
0.0709254
0.0709253
0.0709253
0.0709253
0.0709253
0.0709253
0.0709253
0.0709253
0.0709253
0.0709252
0.0709252
0.0709252
0.0709252
0.0709252
0.0709252
0.0709252
0.0709251
0.0709251
0.0709251
0.0709251
0.0709251
0.0709251
0.0709251
0.070925
0.070925
0.070925
0.070925
0.070925
0.070925
0.0709249
0.0709249
0.0709249
0.0709249
0.0709249
0.0709248
0.0709248
0.0709248
0.0709248
0.0709248
0.0709247
0.0709247
0.0709247
0.0709247
0.0709246
0.0709246
0.0709246
0.0709246
0.0709245
0.0709245
0.0709245
0.0709245
0.0709244
0.0709244
0.0709244
0.0709243
0.0709243
0.0709243
0.0709242
0.0709242
0.0709242
0.0709241
0.0709241
0.0709241
0.070924
0.070924
0.0709239
0.0709239
0.0709239
0.0709238
0.0709238
0.0709237
0.0709237
0.0709236
0.0709236
0.0709235
0.0709235
0.0709234
0.0709234
0.0709233
0.0709232
0.0709232
0.0709231
0.070923
0.070923
0.0709229
0.0709228
0.0709227
0.0709226
0.0709225
0.0709225
0.0709224
0.0709223
0.0709221
0.070922
0.0709219
0.0709218
0.0709217
0.0709215
0.0709214
0.0709213
0.0709211
0.0709209
0.0709208
0.0709206
0.0709204
0.0709202
0.07092
0.0709198
0.0709195
0.0709193
0.070919
0.0709187
0.0709184
0.070918
0.0709176
0.0709172
0.0709168
0.0709163
0.0709158
0.0709152
0.0709145
0.0709138
0.0709129
0.070912
0.0709109
0.0709097
0.0709082
0.0709066
0.0709046
0.0709022
0.0708993
0.0708957
0.0708912
0.0708853
0.0708773
0.070866
0.0708494
0.0708239
0.0707828
0.0707117
0.070571
0.0702235
0.069132
0.0647921
0.0311994
0.0150885
0.00742877
0.00369395
0.00184492
0.000922789
0.000461628
0.00023085
0.000115387
5.76459e-05
2.87857e-05
1.43682e-05
7.16898e-06
3.5757e-06
1.78291e-06
8.88758e-07
4.42934e-07
2.20716e-07
1.09978e-07
5.48054e-08
2.73318e-08
1.36373e-08
6.82899e-09
3.44358e-09
1.73489e-09
9.27267e-10
5.50912e-10
3.85242e-10
2.35855e-10
1.59231e-10
1.16944e-10
9.84278e-11
8.92926e-11
8.38969e-11
8.15485e-11
7.92599e-11
7.84063e-11
7.77417e-11
7.7322e-11
7.71481e-11
7.70138e-11
7.69301e-11
7.68979e-11
7.68714e-11
7.68546e-11
7.68461e-11
7.68425e-11
7.68403e-11
7.68385e-11
7.68377e-11
7.68373e-11
7.6837e-11
7.6837e-11
7.68369e-11
7.6837e-11
7.68371e-11
7.68371e-11
7.68372e-11
7.68373e-11
7.68374e-11
7.68376e-11
7.68377e-11
7.68377e-11
7.68379e-11
7.6838e-11
7.68381e-11
7.68382e-11
7.68383e-11
7.68384e-11
7.68386e-11
7.68387e-11
7.68387e-11
7.68389e-11
7.6839e-11
7.68391e-11
7.68392e-11
7.68393e-11
7.68395e-11
7.68396e-11
7.68397e-11
7.68398e-11
7.68399e-11
7.684e-11
7.68401e-11
7.68402e-11
7.68403e-11
7.68405e-11
7.68405e-11
7.68407e-11
7.68408e-11
7.68409e-11
7.6841e-11
7.68411e-11
7.68412e-11
7.68413e-11
7.68414e-11
7.68415e-11
7.68416e-11
7.68418e-11
7.68419e-11
7.6842e-11
7.68421e-11
7.68422e-11
7.68423e-11
7.68424e-11
7.68425e-11
7.68426e-11
7.68428e-11
7.68429e-11
7.68429e-11
7.68431e-11
7.68432e-11
7.68433e-11
7.68434e-11
7.68435e-11
7.68436e-11
7.68437e-11
7.68438e-11
7.6844e-11
7.6844e-11
7.68441e-11
7.68443e-11
7.68444e-11
7.68445e-11
7.68446e-11
7.68447e-11
7.68448e-11
7.68449e-11
7.6845e-11
7.68451e-11
7.68452e-11
7.68453e-11
7.68454e-11
7.68456e-11
7.68457e-11
7.68458e-11
7.68459e-11
7.6846e-11
7.68461e-11
7.68462e-11
7.68463e-11
7.68464e-11
7.68465e-11
7.68467e-11
7.68467e-11
7.68469e-11
7.6847e-11
7.68471e-11
7.68472e-11
7.68473e-11
7.68474e-11
7.68476e-11
7.68477e-11
7.68478e-11
7.68479e-11
7.6848e-11
7.68481e-11
7.68482e-11
7.68483e-11
7.68484e-11
7.68485e-11
7.68486e-11
7.68487e-11
7.68488e-11
7.6849e-11
7.68491e-11
7.68492e-11
7.68493e-11
7.68494e-11
7.68495e-11
7.68496e-11
7.68497e-11
7.68498e-11
7.68499e-11
7.685e-11
7.68501e-11
7.68503e-11
7.68504e-11
7.68505e-11
7.68506e-11
7.68507e-11
7.68508e-11
7.68509e-11
7.68511e-11
7.68512e-11
7.68513e-11
7.68514e-11
7.68515e-11
7.68516e-11
7.68517e-11
7.68519e-11
7.6852e-11
7.68521e-11
7.68522e-11
7.68523e-11
7.68524e-11
7.68525e-11
7.68526e-11
7.68527e-11
7.68528e-11
7.68529e-11
7.68531e-11
7.68532e-11
7.68533e-11
7.68534e-11
7.68535e-11
7.68537e-11
7.68538e-11
7.68539e-11
7.6854e-11
7.68541e-11
7.68542e-11
7.68543e-11
7.68545e-11
7.68546e-11
7.68547e-11
7.68548e-11
7.68549e-11
7.68551e-11
7.68552e-11
7.68553e-11
7.68554e-11
7.68555e-11
7.68556e-11
7.68557e-11
7.68558e-11
7.6856e-11
7.68561e-11
7.68562e-11
7.68563e-11
7.68564e-11
7.68565e-11
7.68567e-11
7.68568e-11
7.68569e-11
7.6857e-11
7.68571e-11
7.68572e-11
7.68574e-11
7.68575e-11
7.68576e-11
7.68577e-11
7.68578e-11
7.6858e-11
7.68581e-11
7.68582e-11
7.68583e-11
7.68584e-11
7.68585e-11
7.68586e-11
7.68587e-11
7.68589e-11
7.6859e-11
7.68591e-11
7.68592e-11
7.68594e-11
7.68594e-11
7.68595e-11
7.68597e-11
7.68598e-11
7.68599e-11
7.68601e-11
7.68602e-11
7.68603e-11
7.68604e-11
7.68606e-11
7.68607e-11
7.68608e-11
7.68609e-11
7.6861e-11
7.68612e-11
7.68613e-11
7.68614e-11
7.68616e-11
7.68617e-11
7.68618e-11
7.68619e-11
7.6862e-11
7.68621e-11
7.68623e-11
7.68624e-11
7.68625e-11
7.68626e-11
7.68628e-11
7.68629e-11
7.6863e-11
7.68631e-11
7.68632e-11
7.68634e-11
7.68635e-11
7.68636e-11
7.68637e-11
7.68638e-11
7.6864e-11
7.68641e-11
7.68642e-11
7.68643e-11
7.68644e-11
7.68646e-11
7.68647e-11
7.68648e-11
7.6865e-11
7.68651e-11
7.68652e-11
7.68654e-11
7.68655e-11
7.68656e-11
7.68658e-11
7.68658e-11
7.6866e-11
7.68661e-11
7.68662e-11
7.68664e-11
7.68665e-11
7.68666e-11
7.68667e-11
7.68668e-11
7.68669e-11
7.68671e-11
7.68672e-11
7.68673e-11
7.68675e-11
7.68676e-11
7.68677e-11
7.68678e-11
7.6868e-11
7.68681e-11
7.68682e-11
7.68683e-11
7.68685e-11
7.68686e-11
7.68687e-11
7.68688e-11
7.6869e-11
7.68691e-11
7.68692e-11
7.68693e-11
7.68694e-11
7.68695e-11
7.68697e-11
7.68699e-11
7.687e-11
7.68701e-11
7.68702e-11
7.68704e-11
7.68705e-11
7.68706e-11
7.68707e-11
7.68709e-11
7.6871e-11
7.68711e-11
7.68713e-11
7.68714e-11
7.68715e-11
7.68716e-11
7.68717e-11
7.68719e-11
7.6872e-11
7.68721e-11
7.68723e-11
7.68724e-11
7.68725e-11
7.68726e-11
7.68728e-11
7.68729e-11
7.68731e-11
7.68732e-11
7.68733e-11
7.68734e-11
7.68735e-11
7.68736e-11
7.68738e-11
7.68739e-11
7.68741e-11
7.68742e-11
7.68743e-11
7.68744e-11
7.68746e-11
7.68747e-11
7.68749e-11
7.6875e-11
7.68751e-11
7.68752e-11
7.68754e-11
7.68755e-11
7.68756e-11
7.68758e-11
7.68759e-11
7.6876e-11
7.68761e-11
7.68763e-11
7.68764e-11
7.68765e-11
7.68767e-11
7.68768e-11
7.68769e-11
7.6877e-11
7.68772e-11
7.68773e-11
7.68774e-11
7.68776e-11
7.68777e-11
7.68778e-11
7.68779e-11
7.68781e-11
7.68782e-11
7.68783e-11
7.68785e-11
7.68786e-11
7.68787e-11
7.68789e-11
7.6879e-11
7.68791e-11
7.68793e-11
7.68794e-11
7.68795e-11
7.68796e-11
7.68798e-11
7.68799e-11
7.68801e-11
7.68802e-11
7.68803e-11
7.68804e-11
7.68805e-11
7.68807e-11
7.68808e-11
7.68809e-11
7.68811e-11
7.68812e-11
7.68813e-11
7.68815e-11
7.68816e-11
7.68817e-11
7.68819e-11
7.6882e-11
7.68821e-11
7.68823e-11
7.68824e-11
7.68825e-11
7.68827e-11
7.68828e-11
7.68829e-11
7.68831e-11
7.68832e-11
7.68833e-11
7.68835e-11
7.68836e-11
7.68837e-11
7.68839e-11
7.6884e-11
7.68841e-11
7.68843e-11
7.68844e-11
7.68845e-11
7.68847e-11
7.68848e-11
7.68849e-11
7.6885e-11
7.68851e-11
7.68853e-11
7.68854e-11
7.68856e-11
7.68857e-11
7.68859e-11
7.6886e-11
7.68862e-11
7.68863e-11
7.68864e-11
7.68866e-11
7.68867e-11
7.68868e-11
7.68869e-11
7.68871e-11
7.68872e-11
7.68873e-11
7.68874e-11
7.68876e-11
7.68877e-11
7.68879e-11
7.6888e-11
7.68882e-11
7.68882e-11
7.68884e-11
7.68885e-11
7.68886e-11
7.68888e-11
7.68889e-11
7.68891e-11
7.68893e-11
7.68894e-11
7.68895e-11
7.68896e-11
7.68898e-11
7.68899e-11
7.689e-11
7.68902e-11
7.68903e-11
7.68905e-11
7.68905e-11
7.68907e-11
7.68908e-11
7.6891e-11
7.68911e-11
7.68913e-11
7.68914e-11
7.68915e-11
7.68916e-11
7.68917e-11
7.68918e-11
7.6892e-11
7.68921e-11
7.68923e-11
7.68924e-11
7.68925e-11
7.68927e-11
7.68928e-11
7.6893e-11
7.68931e-11
7.68932e-11
7.68934e-11
7.68936e-11
7.68937e-11
7.68938e-11
7.68939e-11
7.68941e-11
7.68943e-11
7.68944e-11
7.68945e-11
7.68946e-11
7.68947e-11
7.6895e-11
7.68951e-11
7.68952e-11
7.68953e-11
7.68955e-11
7.68956e-11
7.68957e-11
7.68959e-11
7.68961e-11
7.68962e-11
7.68963e-11
7.68964e-11
7.68966e-11
7.68967e-11
7.68969e-11
7.68969e-11
7.68971e-11
7.68973e-11
7.68974e-11
7.68975e-11
7.68977e-11
7.68978e-11
7.6898e-11
7.68981e-11
7.68982e-11
7.68983e-11
7.68985e-11
7.68986e-11
7.68988e-11
7.68989e-11
7.6899e-11
7.68992e-11
7.68993e-11
7.68995e-11
7.68996e-11
7.68998e-11
7.68999e-11
7.69e-11
7.69002e-11
7.69003e-11
7.69004e-11
7.69006e-11
7.69007e-11
7.69009e-11
7.6901e-11
7.69011e-11
7.69013e-11
7.69015e-11
7.69016e-11
7.69017e-11
7.69019e-11
7.6902e-11
7.69021e-11
7.69023e-11
7.69024e-11
7.69026e-11
7.69027e-11
7.69028e-11
7.6903e-11
7.69031e-11
7.69033e-11
7.69034e-11
7.69035e-11
7.69037e-11
7.69038e-11
7.6904e-11
7.69041e-11
7.69042e-11
7.69043e-11
7.69045e-11
7.69047e-11
7.69048e-11
7.6905e-11
7.69051e-11
7.69053e-11
7.69054e-11
7.69055e-11
7.69057e-11
7.69058e-11
7.69059e-11
7.69061e-11
7.69062e-11
7.69064e-11
7.69065e-11
7.69067e-11
7.69068e-11
7.6907e-11
7.69071e-11
7.69073e-11
7.69074e-11
7.69075e-11
7.69077e-11
7.69078e-11
7.6908e-11
7.69081e-11
7.69083e-11
7.69084e-11
7.69085e-11
7.69087e-11
7.69088e-11
7.6909e-11
7.69091e-11
7.69093e-11
7.69094e-11
7.69095e-11
7.69097e-11
7.69098e-11
7.691e-11
7.69101e-11
7.69102e-11
7.69104e-11
7.69106e-11
7.69107e-11
7.69109e-11
7.6911e-11
7.69111e-11
7.69113e-11
7.69114e-11
7.69116e-11
7.69117e-11
7.69119e-11
7.69121e-11
7.69122e-11
7.69123e-11
7.69125e-11
7.69126e-11
7.69128e-11
7.69129e-11
7.69131e-11
7.69132e-11
7.69133e-11
7.69135e-11
7.69136e-11
7.69138e-11
7.69139e-11
7.69141e-11
7.69142e-11
7.69143e-11
7.69145e-11
7.69147e-11
7.69149e-11
7.6915e-11
7.69151e-11
7.69153e-11
7.69154e-11
7.69156e-11
7.69157e-11
7.69158e-11
7.6916e-11
7.69161e-11
7.69163e-11
7.69164e-11
7.69166e-11
7.69168e-11
7.69169e-11
7.69171e-11
7.69172e-11
7.69174e-11
7.69175e-11
7.69176e-11
7.69178e-11
7.69179e-11
7.69181e-11
7.69182e-11
7.69184e-11
7.69185e-11
7.69187e-11
7.69188e-11
7.6919e-11
7.69191e-11
7.69192e-11
7.69194e-11
7.69196e-11
7.69198e-11
)
;

boundaryField
{
    fixedWall
    {
        type            zeroGradient;
    }
    outlet
    {
        type            inletOutlet;
        inletValue      uniform 0;
        value           uniform 7.69198e-11;
    }
    defaultFaces
    {
        type            empty;
    }
}


// ************************************************************************* //
