/*--------------------------------*- C++ -*----------------------------------*\
| =========                 |                                                 |
| \\      /  F ield         | OpenFOAM: The Open Source CFD Toolbox           |
|  \\    /   O peration     | Version:  2406                                  |
|   \\  /    A nd           | Website:  www.openfoam.com                      |
|    \\/     M anipulation  |                                                 |
\*---------------------------------------------------------------------------*/
FoamFile
{
    version     2.0;
    format      ascii;
    arch        "LSB;label=32;scalar=64";
    class       volScalarField;
    location    "1.9";
    object      H2O;
}
// * * * * * * * * * * * * * * * * * * * * * * * * * * * * * * * * * * * * * //

dimensions      [0 0 0 0 0 0 0];

internalField   nonuniform List<scalar> 
1000
(
0.0580662
0.0580662
0.0580662
0.0580662
0.0580662
0.0580662
0.0580662
0.0580662
0.0580662
0.0580662
0.0580662
0.0580662
0.0580663
0.0580663
0.0580663
0.0580663
0.0580663
0.0580663
0.0580663
0.0580663
0.0580663
0.0580663
0.0580664
0.0580664
0.0580664
0.0580664
0.0580664
0.0580664
0.0580664
0.0580664
0.0580664
0.0580665
0.0580665
0.0580665
0.0580665
0.0580665
0.0580665
0.0580665
0.0580665
0.0580665
0.0580665
0.0580665
0.0580665
0.0580665
0.0580665
0.0580665
0.0580665
0.0580665
0.0580665
0.0580665
0.0580665
0.0580665
0.0580665
0.0580665
0.0580665
0.0580665
0.0580665
0.0580665
0.0580665
0.0580665
0.0580665
0.0580665
0.0580665
0.0580665
0.0580665
0.0580665
0.0580665
0.0580665
0.0580664
0.0580664
0.0580664
0.0580664
0.0580664
0.0580664
0.0580664
0.0580664
0.0580664
0.0580664
0.0580664
0.0580664
0.0580664
0.0580664
0.0580664
0.0580664
0.0580664
0.0580664
0.0580664
0.0580664
0.0580664
0.0580664
0.0580664
0.0580664
0.0580663
0.0580663
0.0580663
0.0580663
0.0580663
0.0580663
0.0580663
0.0580663
0.0580663
0.0580663
0.0580663
0.0580663
0.0580663
0.0580663
0.0580663
0.0580663
0.0580663
0.0580663
0.0580663
0.0580663
0.0580662
0.0580662
0.0580662
0.0580662
0.0580662
0.0580662
0.0580662
0.0580662
0.0580662
0.0580662
0.0580662
0.0580662
0.0580662
0.0580662
0.0580662
0.0580662
0.0580661
0.0580661
0.0580661
0.0580661
0.0580661
0.0580661
0.0580661
0.0580661
0.0580661
0.0580661
0.0580661
0.0580661
0.0580661
0.0580661
0.058066
0.058066
0.058066
0.058066
0.058066
0.058066
0.058066
0.058066
0.058066
0.058066
0.058066
0.058066
0.0580659
0.0580659
0.0580659
0.0580659
0.0580659
0.0580659
0.0580659
0.0580659
0.0580659
0.0580659
0.0580658
0.0580658
0.0580658
0.0580658
0.0580658
0.0580658
0.0580658
0.0580658
0.0580657
0.0580657
0.0580657
0.0580657
0.0580657
0.0580657
0.0580657
0.0580657
0.0580656
0.0580656
0.0580656
0.0580656
0.0580656
0.0580656
0.0580655
0.0580655
0.0580655
0.0580655
0.0580655
0.0580655
0.0580654
0.0580654
0.0580654
0.0580654
0.0580654
0.0580653
0.0580653
0.0580653
0.0580653
0.0580653
0.0580652
0.0580652
0.0580652
0.0580652
0.0580651
0.0580651
0.0580651
0.0580651
0.058065
0.058065
0.058065
0.0580649
0.0580649
0.0580649
0.0580648
0.0580648
0.0580648
0.0580647
0.0580647
0.0580647
0.0580646
0.0580646
0.0580645
0.0580645
0.0580645
0.0580644
0.0580644
0.0580643
0.0580643
0.0580642
0.0580642
0.0580641
0.0580641
0.058064
0.0580639
0.0580639
0.0580638
0.0580637
0.0580637
0.0580636
0.0580635
0.0580634
0.0580633
0.0580633
0.0580632
0.0580631
0.058063
0.0580628
0.0580627
0.0580626
0.0580625
0.0580624
0.0580622
0.0580621
0.0580619
0.0580617
0.0580616
0.0580614
0.0580612
0.058061
0.0580607
0.0580605
0.0580602
0.05806
0.0580596
0.0580593
0.058059
0.0580586
0.0580581
0.0580576
0.0580571
0.0580565
0.0580558
0.058055
0.0580541
0.0580531
0.058052
0.0580506
0.058049
0.058047
0.0580446
0.0580417
0.058038
0.0580331
0.0580266
0.0580174
0.0580038
0.0579829
0.0579493
0.057891
0.0577758
0.0574913
0.0565977
0.0530447
0.0255426
0.0123529
0.00608187
0.00302421
0.00151042
0.000755479
0.000377931
0.000188995
9.44664e-05
4.71942e-05
2.35666e-05
1.17631e-05
5.86918e-06
2.9274e-06
1.45966e-06
7.27618e-07
3.62626e-07
1.80699e-07
9.00381e-08
4.48687e-08
2.23763e-08
1.11648e-08
5.59084e-09
2.81923e-09
1.42034e-09
7.59145e-10
4.51027e-10
3.15394e-10
1.93093e-10
1.30361e-10
9.57407e-11
8.0582e-11
7.31031e-11
6.86857e-11
6.6763e-11
6.48894e-11
6.41906e-11
6.36464e-11
6.33028e-11
6.31604e-11
6.30505e-11
6.2982e-11
6.29557e-11
6.2934e-11
6.29202e-11
6.29133e-11
6.29103e-11
6.29085e-11
6.2907e-11
6.29064e-11
6.2906e-11
6.29058e-11
6.29057e-11
6.29057e-11
6.29058e-11
6.29058e-11
6.29059e-11
6.2906e-11
6.2906e-11
6.29061e-11
6.29062e-11
6.29063e-11
6.29064e-11
6.29065e-11
6.29066e-11
6.29067e-11
6.29068e-11
6.29069e-11
6.2907e-11
6.29071e-11
6.29071e-11
6.29072e-11
6.29074e-11
6.29074e-11
6.29075e-11
6.29076e-11
6.29077e-11
6.29078e-11
6.29079e-11
6.2908e-11
6.29081e-11
6.29081e-11
6.29082e-11
6.29083e-11
6.29084e-11
6.29085e-11
6.29086e-11
6.29087e-11
6.29088e-11
6.29089e-11
6.29089e-11
6.2909e-11
6.29091e-11
6.29092e-11
6.29093e-11
6.29094e-11
6.29095e-11
6.29096e-11
6.29097e-11
6.29098e-11
6.29099e-11
6.291e-11
6.291e-11
6.29101e-11
6.29102e-11
6.29103e-11
6.29104e-11
6.29105e-11
6.29106e-11
6.29106e-11
6.29107e-11
6.29108e-11
6.29109e-11
6.2911e-11
6.29111e-11
6.29112e-11
6.29113e-11
6.29114e-11
6.29115e-11
6.29115e-11
6.29116e-11
6.29117e-11
6.29118e-11
6.29119e-11
6.2912e-11
6.29121e-11
6.29122e-11
6.29123e-11
6.29124e-11
6.29124e-11
6.29125e-11
6.29126e-11
6.29127e-11
6.29128e-11
6.29129e-11
6.29129e-11
6.2913e-11
6.29131e-11
6.29133e-11
6.29133e-11
6.29134e-11
6.29135e-11
6.29136e-11
6.29137e-11
6.29137e-11
6.29139e-11
6.29139e-11
6.29141e-11
6.29141e-11
6.29142e-11
6.29143e-11
6.29144e-11
6.29145e-11
6.29146e-11
6.29147e-11
6.29148e-11
6.29149e-11
6.29149e-11
6.2915e-11
6.29151e-11
6.29152e-11
6.29153e-11
6.29154e-11
6.29155e-11
6.29156e-11
6.29157e-11
6.29157e-11
6.29158e-11
6.29159e-11
6.2916e-11
6.29161e-11
6.29162e-11
6.29163e-11
6.29164e-11
6.29164e-11
6.29165e-11
6.29167e-11
6.29167e-11
6.29168e-11
6.29169e-11
6.2917e-11
6.29171e-11
6.29172e-11
6.29173e-11
6.29174e-11
6.29175e-11
6.29175e-11
6.29177e-11
6.29177e-11
6.29178e-11
6.29179e-11
6.2918e-11
6.29181e-11
6.29182e-11
6.29183e-11
6.29184e-11
6.29185e-11
6.29186e-11
6.29187e-11
6.29187e-11
6.29188e-11
6.29189e-11
6.2919e-11
6.29191e-11
6.29192e-11
6.29193e-11
6.29194e-11
6.29195e-11
6.29196e-11
6.29197e-11
6.29198e-11
6.29199e-11
6.292e-11
6.29201e-11
6.29202e-11
6.29202e-11
6.29204e-11
6.29204e-11
6.29206e-11
6.29206e-11
6.29207e-11
6.29208e-11
6.29209e-11
6.2921e-11
6.29211e-11
6.29212e-11
6.29213e-11
6.29214e-11
6.29215e-11
6.29216e-11
6.29217e-11
6.29218e-11
6.29219e-11
6.2922e-11
6.29221e-11
6.29222e-11
6.29222e-11
6.29223e-11
6.29225e-11
6.29225e-11
6.29226e-11
6.29227e-11
6.29228e-11
6.29229e-11
6.2923e-11
6.29231e-11
6.29232e-11
6.29233e-11
6.29234e-11
6.29235e-11
6.29236e-11
6.29237e-11
6.29238e-11
6.29239e-11
6.2924e-11
6.29241e-11
6.29242e-11
6.29242e-11
6.29244e-11
6.29245e-11
6.29245e-11
6.29247e-11
6.29248e-11
6.29249e-11
6.2925e-11
6.29251e-11
6.29252e-11
6.29253e-11
6.29254e-11
6.29254e-11
6.29256e-11
6.29257e-11
6.29258e-11
6.29259e-11
6.2926e-11
6.29261e-11
6.29262e-11
6.29262e-11
6.29264e-11
6.29265e-11
6.29266e-11
6.29267e-11
6.29267e-11
6.29269e-11
6.2927e-11
6.29271e-11
6.29271e-11
6.29273e-11
6.29274e-11
6.29274e-11
6.29276e-11
6.29276e-11
6.29277e-11
6.29279e-11
6.2928e-11
6.2928e-11
6.29281e-11
6.29282e-11
6.29284e-11
6.29284e-11
6.29285e-11
6.29287e-11
6.29288e-11
6.29289e-11
6.2929e-11
6.29291e-11
6.29292e-11
6.29293e-11
6.29294e-11
6.29295e-11
6.29296e-11
6.29297e-11
6.29298e-11
6.29299e-11
6.293e-11
6.29301e-11
6.29302e-11
6.29303e-11
6.29304e-11
6.29305e-11
6.29306e-11
6.29307e-11
6.29308e-11
6.29309e-11
6.2931e-11
6.29312e-11
6.29312e-11
6.29313e-11
6.29314e-11
6.29315e-11
6.29316e-11
6.29317e-11
6.29318e-11
6.29319e-11
6.29321e-11
6.29322e-11
6.29323e-11
6.29323e-11
6.29324e-11
6.29326e-11
6.29327e-11
6.29328e-11
6.29329e-11
6.2933e-11
6.29331e-11
6.29332e-11
6.29333e-11
6.29334e-11
6.29335e-11
6.29336e-11
6.29337e-11
6.29338e-11
6.29339e-11
6.2934e-11
6.29341e-11
6.29342e-11
6.29344e-11
6.29345e-11
6.29345e-11
6.29347e-11
6.29348e-11
6.29349e-11
6.2935e-11
6.29351e-11
6.29352e-11
6.29353e-11
6.29354e-11
6.29355e-11
6.29356e-11
6.29357e-11
6.29358e-11
6.29359e-11
6.2936e-11
6.29361e-11
6.29362e-11
6.29363e-11
6.29364e-11
6.29366e-11
6.29367e-11
6.29368e-11
6.29369e-11
6.2937e-11
6.29371e-11
6.29372e-11
6.29373e-11
6.29374e-11
6.29375e-11
6.29376e-11
6.29377e-11
6.29378e-11
6.29379e-11
6.2938e-11
6.29381e-11
6.29383e-11
6.29384e-11
6.29385e-11
6.29385e-11
6.29387e-11
6.29388e-11
6.29389e-11
6.2939e-11
6.29391e-11
6.29392e-11
6.29393e-11
6.29394e-11
6.29395e-11
6.29396e-11
6.29397e-11
6.29398e-11
6.29399e-11
6.29401e-11
6.29402e-11
6.29403e-11
6.29404e-11
6.29405e-11
6.29406e-11
6.29407e-11
6.29408e-11
6.29409e-11
6.2941e-11
6.29411e-11
6.29412e-11
6.29413e-11
6.29414e-11
6.29415e-11
6.29416e-11
6.29418e-11
6.29418e-11
6.2942e-11
6.29421e-11
6.29422e-11
6.29423e-11
6.29424e-11
6.29425e-11
6.29426e-11
6.29427e-11
6.29428e-11
6.29429e-11
6.29431e-11
6.29432e-11
6.29433e-11
6.29434e-11
6.29435e-11
6.29436e-11
6.29437e-11
6.29438e-11
6.29439e-11
6.2944e-11
6.29441e-11
6.29442e-11
6.29444e-11
6.29445e-11
6.29446e-11
6.29447e-11
6.29448e-11
6.29449e-11
6.2945e-11
6.29451e-11
6.29452e-11
6.29453e-11
6.29454e-11
6.29456e-11
6.29457e-11
6.29458e-11
6.29459e-11
6.2946e-11
6.29461e-11
6.29462e-11
6.29464e-11
6.29464e-11
6.29466e-11
6.29467e-11
6.29468e-11
6.29469e-11
6.2947e-11
6.29471e-11
6.29472e-11
6.29473e-11
6.29474e-11
6.29475e-11
6.29477e-11
6.29477e-11
6.29479e-11
6.29479e-11
6.29481e-11
6.29482e-11
6.29482e-11
6.29484e-11
6.29486e-11
6.29487e-11
6.29488e-11
6.29489e-11
6.2949e-11
6.29491e-11
6.29492e-11
6.29493e-11
6.29494e-11
6.29495e-11
6.29496e-11
6.29497e-11
6.29499e-11
6.295e-11
6.29501e-11
6.29502e-11
6.29503e-11
6.29504e-11
6.29505e-11
6.29506e-11
6.29507e-11
6.29508e-11
6.29509e-11
6.2951e-11
6.29511e-11
6.29512e-11
6.29513e-11
6.29515e-11
6.29516e-11
6.29517e-11
6.29518e-11
6.29519e-11
6.29521e-11
6.29522e-11
6.29523e-11
6.29524e-11
6.29525e-11
6.29527e-11
6.29527e-11
6.29528e-11
6.2953e-11
6.2953e-11
6.29532e-11
6.29534e-11
6.29534e-11
6.29535e-11
6.29537e-11
6.29538e-11
6.29539e-11
6.2954e-11
6.29541e-11
6.29543e-11
6.29544e-11
6.29544e-11
6.29546e-11
6.29547e-11
6.29548e-11
6.29549e-11
6.2955e-11
6.29551e-11
6.29552e-11
6.29553e-11
6.29554e-11
6.29555e-11
6.29557e-11
6.29558e-11
6.29559e-11
6.2956e-11
6.29561e-11
6.29562e-11
6.29563e-11
6.29565e-11
6.29565e-11
6.29567e-11
6.29568e-11
6.29569e-11
6.2957e-11
6.29572e-11
6.29573e-11
6.29574e-11
6.29575e-11
6.29576e-11
6.29577e-11
6.29578e-11
6.29579e-11
6.29581e-11
6.29582e-11
6.29582e-11
6.29584e-11
6.29585e-11
6.29587e-11
6.29588e-11
6.29589e-11
6.2959e-11
6.29591e-11
6.29592e-11
6.29593e-11
6.29595e-11
6.29596e-11
6.29596e-11
6.29598e-11
6.29599e-11
6.296e-11
6.29601e-11
6.29602e-11
6.29604e-11
6.29605e-11
6.29606e-11
6.29607e-11
6.29608e-11
6.29609e-11
6.29611e-11
6.29612e-11
6.29613e-11
6.29614e-11
6.29615e-11
6.29617e-11
6.29618e-11
6.29619e-11
6.2962e-11
6.29621e-11
6.29622e-11
6.29623e-11
6.29624e-11
6.29626e-11
6.29627e-11
6.29628e-11
6.29629e-11
6.29631e-11
6.29632e-11
6.29633e-11
6.29634e-11
6.29635e-11
6.29636e-11
6.29638e-11
6.29639e-11
6.2964e-11
6.29641e-11
6.29642e-11
6.29643e-11
6.29644e-11
6.29646e-11
6.29647e-11
6.29648e-11
6.29649e-11
6.2965e-11
6.29652e-11
6.29653e-11
6.29654e-11
6.29655e-11
6.29656e-11
6.29657e-11
6.29659e-11
6.2966e-11
6.29661e-11
6.29662e-11
6.29664e-11
6.29665e-11
6.29666e-11
6.29667e-11
6.29668e-11
6.29669e-11
6.29671e-11
6.29672e-11
6.29674e-11
6.29675e-11
6.29676e-11
6.29677e-11
6.29678e-11
6.29679e-11
6.2968e-11
6.29681e-11
6.29683e-11
6.29684e-11
6.29685e-11
6.29686e-11
6.29687e-11
6.29689e-11
6.2969e-11
6.29691e-11
6.29693e-11
6.29694e-11
6.29695e-11
6.29696e-11
6.29697e-11
6.29699e-11
6.297e-11
6.29701e-11
6.29702e-11
6.29703e-11
6.29704e-11
6.29706e-11
6.29707e-11
6.29708e-11
6.29709e-11
6.29711e-11
6.29712e-11
6.29713e-11
6.29714e-11
6.29716e-11
6.29717e-11
6.29718e-11
6.29719e-11
6.2972e-11
6.29721e-11
6.29723e-11
6.29724e-11
6.29725e-11
6.29726e-11
6.29728e-11
6.29729e-11
6.2973e-11
6.29731e-11
6.29732e-11
6.29734e-11
6.29735e-11
)
;

boundaryField
{
    fixedWall
    {
        type            zeroGradient;
    }
    outlet
    {
        type            inletOutlet;
        inletValue      uniform 0;
        value           uniform 6.29735e-11;
    }
    defaultFaces
    {
        type            empty;
    }
}


// ************************************************************************* //
