/*--------------------------------*- C++ -*----------------------------------*\
| =========                 |                                                 |
| \\      /  F ield         | OpenFOAM: The Open Source CFD Toolbox           |
|  \\    /   O peration     | Version:  2406                                  |
|   \\  /    A nd           | Website:  www.openfoam.com                      |
|    \\/     M anipulation  |                                                 |
\*---------------------------------------------------------------------------*/
FoamFile
{
    version     2.0;
    format      ascii;
    arch        "LSB;label=32;scalar=64";
    class       surfaceScalarField;
    location    "1.9";
    object      phi;
}
// * * * * * * * * * * * * * * * * * * * * * * * * * * * * * * * * * * * * * //

dimensions      [1 0 -1 0 0 0 0];

oriented        oriented;

internalField   nonuniform List<scalar> 
999
(
-3.06867e-07
-7.97176e-07
-1.34234e-06
-1.89779e-06
-2.44587e-06
-2.97924e-06
-3.49489e-06
-3.99185e-06
-4.47004e-06
-4.92984e-06
-5.37184e-06
-5.79666e-06
-6.20495e-06
-6.59736e-06
-6.97448e-06
-7.33686e-06
-7.68504e-06
-8.0195e-06
-8.34068e-06
-8.64903e-06
-8.94494e-06
-9.22878e-06
-9.50091e-06
-9.76168e-06
-1.00114e-05
-1.02504e-05
-1.0479e-05
-1.06975e-05
-1.09062e-05
-1.11053e-05
-1.12952e-05
-1.14761e-05
-1.16484e-05
-1.18122e-05
-1.19679e-05
-1.21157e-05
-1.2256e-05
-1.23889e-05
-1.25148e-05
-1.2634e-05
-1.27466e-05
-1.28531e-05
-1.29536e-05
-1.30485e-05
-1.31374e-05
-1.32212e-05
-1.33003e-05
-1.33748e-05
-1.34449e-05
-1.35109e-05
-1.35731e-05
-1.36315e-05
-1.36865e-05
-1.37382e-05
-1.37869e-05
-1.38327e-05
-1.38759e-05
-1.39167e-05
-1.39552e-05
-1.39916e-05
-1.40261e-05
-1.40588e-05
-1.40898e-05
-1.41194e-05
-1.41477e-05
-1.41747e-05
-1.42006e-05
-1.42255e-05
-1.42496e-05
-1.42728e-05
-1.42953e-05
-1.43172e-05
-1.43385e-05
-1.43593e-05
-1.43797e-05
-1.43997e-05
-1.44193e-05
-1.44387e-05
-1.44579e-05
-1.44768e-05
-1.44955e-05
-1.45142e-05
-1.45327e-05
-1.45511e-05
-1.45694e-05
-1.45876e-05
-1.46058e-05
-1.4624e-05
-1.46422e-05
-1.46603e-05
-1.46784e-05
-1.46966e-05
-1.47147e-05
-1.47328e-05
-1.4751e-05
-1.47691e-05
-1.47873e-05
-1.48054e-05
-1.48236e-05
-1.48418e-05
-1.486e-05
-1.48782e-05
-1.48965e-05
-1.49147e-05
-1.49329e-05
-1.49512e-05
-1.49694e-05
-1.49877e-05
-1.50059e-05
-1.50242e-05
-1.50424e-05
-1.50606e-05
-1.50789e-05
-1.50971e-05
-1.51153e-05
-1.51336e-05
-1.51518e-05
-1.517e-05
-1.51882e-05
-1.52064e-05
-1.52246e-05
-1.52428e-05
-1.5261e-05
-1.52792e-05
-1.52974e-05
-1.53155e-05
-1.53337e-05
-1.53519e-05
-1.53701e-05
-1.53883e-05
-1.54065e-05
-1.54247e-05
-1.54429e-05
-1.54612e-05
-1.54794e-05
-1.54977e-05
-1.55159e-05
-1.55342e-05
-1.55525e-05
-1.55708e-05
-1.55892e-05
-1.56075e-05
-1.56259e-05
-1.56442e-05
-1.56626e-05
-1.5681e-05
-1.56995e-05
-1.57179e-05
-1.57363e-05
-1.57548e-05
-1.57733e-05
-1.57917e-05
-1.58102e-05
-1.58287e-05
-1.58472e-05
-1.58657e-05
-1.58842e-05
-1.59027e-05
-1.59211e-05
-1.59396e-05
-1.59581e-05
-1.59766e-05
-1.5995e-05
-1.60135e-05
-1.60319e-05
-1.60503e-05
-1.60687e-05
-1.60871e-05
-1.61055e-05
-1.61239e-05
-1.61423e-05
-1.61606e-05
-1.6179e-05
-1.61973e-05
-1.62157e-05
-1.6234e-05
-1.62524e-05
-1.62707e-05
-1.6289e-05
-1.63074e-05
-1.63257e-05
-1.63441e-05
-1.63625e-05
-1.63808e-05
-1.63992e-05
-1.64176e-05
-1.64361e-05
-1.64545e-05
-1.64729e-05
-1.64914e-05
-1.65098e-05
-1.65283e-05
-1.65468e-05
-1.65653e-05
-1.65838e-05
-1.66023e-05
-1.66208e-05
-1.66393e-05
-1.66578e-05
-1.66763e-05
-1.66948e-05
-1.67132e-05
-1.67317e-05
-1.67502e-05
-1.67686e-05
-1.6787e-05
-1.68054e-05
-1.68238e-05
-1.68422e-05
-1.68605e-05
-1.68788e-05
-1.68972e-05
-1.69155e-05
-1.69338e-05
-1.69521e-05
-1.69704e-05
-1.69887e-05
-1.7007e-05
-1.70253e-05
-1.70436e-05
-1.70619e-05
-1.70803e-05
-1.70986e-05
-1.7117e-05
-1.71354e-05
-1.71538e-05
-1.71722e-05
-1.71906e-05
-1.7209e-05
-1.72274e-05
-1.72457e-05
-1.72641e-05
-1.72825e-05
-1.73008e-05
-1.73191e-05
-1.73374e-05
-1.73557e-05
-1.7374e-05
-1.73922e-05
-1.74105e-05
-1.74287e-05
-1.74469e-05
-1.74652e-05
-1.74834e-05
-1.75015e-05
-1.75197e-05
-1.75378e-05
-1.75558e-05
-1.75738e-05
-1.75916e-05
-1.76093e-05
-1.76269e-05
-1.76443e-05
-1.76616e-05
-1.76788e-05
-1.76959e-05
-1.77128e-05
-1.77298e-05
-1.77467e-05
-1.77637e-05
-1.77807e-05
-1.77979e-05
-1.78152e-05
-1.78326e-05
-1.78502e-05
-1.78679e-05
-1.78858e-05
-1.79037e-05
-1.79218e-05
-1.79399e-05
-1.79581e-05
-1.79764e-05
-1.79948e-05
-1.80132e-05
-1.80315e-05
-1.80497e-05
-1.80675e-05
-1.80846e-05
-1.81007e-05
-1.81153e-05
-1.8128e-05
-1.81381e-05
-1.8145e-05
-1.81475e-05
-1.81443e-05
-1.81334e-05
-1.81121e-05
-1.80756e-05
-1.80108e-05
-1.7875e-05
-1.75361e-05
-1.66138e-05
-1.39813e-05
-5.94723e-06
2.22352e-05
0.00020754
0.000400458
0.000581167
0.000729694
0.000836048
0.00090429
0.000944932
0.000968037
0.00098081
0.00098775
0.000991476
0.000993454
0.000994488
0.000995016
0.000995272
0.000995382
0.000995415
0.000995406
0.000995376
0.000995333
0.000995284
0.000995232
0.000995178
0.000995124
0.000995069
0.000995013
0.000994958
0.000994903
0.000994847
0.000994792
0.000994737
0.000994682
0.000994627
0.000994572
0.000994517
0.000994463
0.000994408
0.000994354
0.000994299
0.000994245
0.000994191
0.000994136
0.000994082
0.000994028
0.000993975
0.000993921
0.000993867
0.000993813
0.00099376
0.000993706
0.000993653
0.0009936
0.000993547
0.000993494
0.000993441
0.000993388
0.000993335
0.000993282
0.00099323
0.000993177
0.000993125
0.000993072
0.00099302
0.000992968
0.000992916
0.000992864
0.000992812
0.00099276
0.000992708
0.000992656
0.000992605
0.000992553
0.000992502
0.000992451
0.0009924
0.000992348
0.000992297
0.000992246
0.000992196
0.000992145
0.000992094
0.000992044
0.000991993
0.000991943
0.000991892
0.000991842
0.000991792
0.000991742
0.000991692
0.000991642
0.000991592
0.000991543
0.000991493
0.000991443
0.000991394
0.000991345
0.000991295
0.000991246
0.000991197
0.000991148
0.000991099
0.00099105
0.000991002
0.000990953
0.000990904
0.000990856
0.000990807
0.000990759
0.000990711
0.000990663
0.000990615
0.000990567
0.000990519
0.000990471
0.000990423
0.000990376
0.000990328
0.000990281
0.000990234
0.000990186
0.000990139
0.000990092
0.000990045
0.000989998
0.000989951
0.000989905
0.000989858
0.000989811
0.000989765
0.000989719
0.000989672
0.000989626
0.00098958
0.000989534
0.000989488
0.000989442
0.000989396
0.000989351
0.000989305
0.000989259
0.000989214
0.000989169
0.000989123
0.000989078
0.000989033
0.000988988
0.000988943
0.000988898
0.000988854
0.000988809
0.000988764
0.00098872
0.000988676
0.000988631
0.000988587
0.000988543
0.000988499
0.000988455
0.000988411
0.000988367
0.000988324
0.00098828
0.000988236
0.000988193
0.00098815
0.000988106
0.000988063
0.00098802
0.000987977
0.000987934
0.000987891
0.000987848
0.000987806
0.000987763
0.000987721
0.000987678
0.000987636
0.000987594
0.000987551
0.000987509
0.000987467
0.000987425
0.000987384
0.000987342
0.0009873
0.000987259
0.000987217
0.000987176
0.000987134
0.000987093
0.000987052
0.000987011
0.00098697
0.000986929
0.000986888
0.000986848
0.000986807
0.000986766
0.000986726
0.000986686
0.000986645
0.000986605
0.000986565
0.000986525
0.000986485
0.000986445
0.000986405
0.000986365
0.000986326
0.000986286
0.000986247
0.000986207
0.000986168
0.000986129
0.00098609
0.000986051
0.000986012
0.000985973
0.000985934
0.000985896
0.000985857
0.000985818
0.00098578
0.000985742
0.000985703
0.000985665
0.000985627
0.000985589
0.000985551
0.000985513
0.000985475
0.000985438
0.0009854
0.000985363
0.000985325
0.000985288
0.00098525
0.000985213
0.000985176
0.000985139
0.000985102
0.000985065
0.000985029
0.000984992
0.000984955
0.000984919
0.000984882
0.000984846
0.00098481
0.000984774
0.000984737
0.000984701
0.000984665
0.00098463
0.000984594
0.000984558
0.000984523
0.000984487
0.000984452
0.000984416
0.000984381
0.000984346
0.000984311
0.000984276
0.000984241
0.000984206
0.000984171
0.000984136
0.000984102
0.000984067
0.000984033
0.000983998
0.000983964
0.00098393
0.000983896
0.000983862
0.000983828
0.000983794
0.00098376
0.000983726
0.000983693
0.000983659
0.000983626
0.000983592
0.000983559
0.000983526
0.000983493
0.00098346
0.000983427
0.000983394
0.000983361
0.000983328
0.000983296
0.000983263
0.000983231
0.000983198
0.000983166
0.000983134
0.000983102
0.00098307
0.000983038
0.000983006
0.000982974
0.000982942
0.000982911
0.000982879
0.000982848
0.000982816
0.000982785
0.000982754
0.000982722
0.000982691
0.00098266
0.00098263
0.000982599
0.000982568
0.000982537
0.000982507
0.000982476
0.000982446
0.000982415
0.000982385
0.000982355
0.000982325
0.000982295
0.000982265
0.000982235
0.000982205
0.000982176
0.000982146
0.000982117
0.000982087
0.000982058
0.000982028
0.000981999
0.00098197
0.000981941
0.000981912
0.000981883
0.000981854
0.000981826
0.000981797
0.000981769
0.00098174
0.000981712
0.000981683
0.000981655
0.000981627
0.000981599
0.000981571
0.000981543
0.000981515
0.000981488
0.00098146
0.000981432
0.000981405
0.000981377
0.00098135
0.000981323
0.000981296
0.000981268
0.000981241
0.000981215
0.000981188
0.000981161
0.000981134
0.000981108
0.000981081
0.000981055
0.000981028
0.000981002
0.000980976
0.00098095
0.000980924
0.000980898
0.000980872
0.000980846
0.00098082
0.000980795
0.000980769
0.000980744
0.000980718
0.000980693
0.000980668
0.000980642
0.000980617
0.000980592
0.000980567
0.000980543
0.000980518
0.000980493
0.000980468
0.000980444
0.00098042
0.000980395
0.000980371
0.000980347
0.000980323
0.000980298
0.000980275
0.000980251
0.000980227
0.000980203
0.000980179
0.000980156
0.000980132
0.000980109
0.000980086
0.000980062
0.000980039
0.000980016
0.000979993
0.00097997
0.000979947
0.000979925
0.000979902
0.000979879
0.000979857
0.000979834
0.000979812
0.00097979
0.000979768
0.000979745
0.000979723
0.000979701
0.000979679
0.000979658
0.000979636
0.000979614
0.000979593
0.000979571
0.00097955
0.000979529
0.000979507
0.000979486
0.000979465
0.000979444
0.000979423
0.000979402
0.000979381
0.000979361
0.00097934
0.000979319
0.000979299
0.000979279
0.000979258
0.000979238
0.000979218
0.000979198
0.000979178
0.000979158
0.000979138
0.000979118
0.000979099
0.000979079
0.00097906
0.00097904
0.000979021
0.000979002
0.000978982
0.000978963
0.000978944
0.000978925
0.000978906
0.000978888
0.000978869
0.00097885
0.000978832
0.000978813
0.000978795
0.000978776
0.000978758
0.00097874
0.000978722
0.000978704
0.000978686
0.000978668
0.00097865
0.000978633
0.000978615
0.000978598
0.00097858
0.000978563
0.000978545
0.000978528
0.000978511
0.000978494
0.000978477
0.00097846
0.000978443
0.000978426
0.00097841
0.000978393
0.000978377
0.00097836
0.000978344
0.000978328
0.000978311
0.000978295
0.000978279
0.000978263
0.000978247
0.000978232
0.000978216
0.0009782
0.000978185
0.000978169
0.000978154
0.000978138
0.000978123
0.000978108
0.000978093
0.000978078
0.000978063
0.000978048
0.000978033
0.000978019
0.000978004
0.000977989
0.000977975
0.000977961
0.000977946
0.000977932
0.000977918
0.000977904
0.00097789
0.000977876
0.000977862
0.000977848
0.000977834
0.000977821
0.000977807
0.000977794
0.000977781
0.000977767
0.000977754
0.000977741
0.000977728
0.000977715
0.000977702
0.000977689
0.000977676
0.000977664
0.000977651
0.000977638
0.000977626
0.000977614
0.000977601
0.000977589
0.000977577
0.000977565
0.000977553
0.000977541
0.000977529
0.000977518
0.000977506
0.000977494
0.000977483
0.000977471
0.00097746
0.000977449
0.000977438
0.000977426
0.000977415
0.000977404
0.000977394
0.000977383
0.000977372
0.000977361
0.000977351
0.00097734
0.00097733
0.00097732
0.000977309
0.000977299
0.000977289
0.000977279
0.000977269
0.000977259
0.000977249
0.00097724
0.00097723
0.00097722
0.000977211
0.000977202
0.000977192
0.000977183
0.000977174
0.000977165
0.000977156
0.000977147
0.000977138
0.000977129
0.00097712
0.000977112
0.000977103
0.000977095
0.000977086
0.000977078
0.00097707
0.000977062
0.000977054
0.000977045
0.000977038
0.00097703
0.000977022
0.000977014
0.000977007
0.000976999
0.000976992
0.000976984
0.000976977
0.00097697
0.000976962
0.000976955
0.000976948
0.000976941
0.000976935
0.000976928
0.000976921
0.000976915
0.000976908
0.000976902
0.000976895
0.000976889
0.000976883
0.000976876
0.00097687
0.000976864
0.000976859
0.000976853
0.000976847
0.000976841
0.000976836
0.00097683
0.000976825
0.000976819
0.000976814
0.000976809
0.000976804
0.000976799
0.000976794
0.000976789
0.000976784
0.000976779
0.000976774
0.00097677
0.000976765
0.000976761
0.000976757
0.000976752
0.000976748
0.000976744
0.00097674
0.000976736
0.000976732
0.000976728
0.000976724
0.000976721
0.000976717
0.000976714
0.00097671
0.000976707
0.000976704
0.0009767
0.000976697
0.000976694
0.000976691
0.000976688
0.000976685
0.000976683
0.00097668
0.000976677
0.000976675
0.000976672
0.00097667
0.000976668
0.000976666
0.000976664
0.000976661
0.00097666
0.000976658
0.000976656
0.000976654
0.000976652
0.000976651
0.000976649
0.000976648
0.000976647
0.000976645
0.000976644
0.000976643
0.000976642
0.000976641
0.00097664
0.000976639
0.000976639
0.000976638
0.000976637
0.000976637
0.000976636
0.000976636
0.000976636
0.000976636
)
;

boundaryField
{
    fixedWall
    {
        type            calculated;
        value           uniform 0;
    }
    outlet
    {
        type            calculated;
        value           uniform 0.000976636;
    }
    defaultFaces
    {
        type            empty;
    }
}


// ************************************************************************* //
