/*--------------------------------*- C++ -*----------------------------------*\
| =========                 |                                                 |
| \\      /  F ield         | OpenFOAM: The Open Source CFD Toolbox           |
|  \\    /   O peration     | Version:  2406                                  |
|   \\  /    A nd           | Website:  www.openfoam.com                      |
|    \\/     M anipulation  |                                                 |
\*---------------------------------------------------------------------------*/
FoamFile
{
    version     2.0;
    format      ascii;
    arch        "LSB;label=32;scalar=64";
    class       volScalarField;
    location    "1.9";
    object      Qdot;
}
// * * * * * * * * * * * * * * * * * * * * * * * * * * * * * * * * * * * * * //

dimensions      [1 -1 -3 0 0 0 0];

internalField   nonuniform List<scalar> 
1000
(
-4.18242e-17
-1.76663e-14
4.32083e-07
6.36486e-06
4.93395e-05
0.000244163
0.000880172
0.00252082
0.0060682
0.0127628
0.0241099
0.0417443
0.0672622
0.10205
0.147134
0.203081
0.269944
0.347264
0.434125
0.529236
0.631041
0.73783
0.847857
0.959431
1.071
1.18119
1.28888
1.39315
1.49335
1.58904
1.67996
1.76603
1.84732
1.92399
1.99627
2.06446
2.12889
2.18989
2.24781
2.30297
2.35568
2.40624
2.4549
2.50191
2.5474
2.59129
2.63456
2.67689
2.7184
2.7592
2.79937
2.83901
2.87817
2.91691
2.95529
2.99336
3.03116
3.06872
3.10609
3.14329
3.18036
3.21732
3.25421
3.29106
3.32789
3.36472
3.4016
3.43854
3.47558
3.51247
3.54939
3.58703
3.62484
3.66285
3.7011
3.73961
3.77843
3.81758
3.85708
3.89697
3.93727
3.97801
4.01921
4.0609
4.1031
4.14584
4.18913
4.23301
4.2775
4.32261
4.36838
4.41482
4.46195
4.50979
4.55837
4.60771
4.65783
4.70874
4.76047
4.81303
4.86646
4.92076
4.97596
5.03208
5.08913
5.14714
5.20613
5.26611
5.32712
5.38916
5.45225
5.51643
5.58171
5.64812
5.71567
5.78439
5.8543
5.92544
5.99782
6.07147
6.14643
6.22271
6.30036
6.3794
6.45987
6.54179
6.62521
6.71016
6.79667
6.8843
6.97281
7.06439
7.15774
7.2529
7.34992
7.44885
7.54975
7.65267
7.75768
7.86483
7.9742
8.08585
8.19986
8.31629
8.43521
8.55672
8.68087
8.80776
8.93746
9.07006
9.20564
9.3443
9.48612
9.63119
9.77962
9.93147
10.0868
10.2452
10.4057
10.5725
10.7433
10.9183
11.0975
11.281
11.469
11.6615
11.8589
12.0611
12.2683
12.4808
12.6986
12.9221
13.1513
13.3864
13.6277
13.8753
14.1296
14.3907
14.659
14.9325
15.2129
15.5055
15.8062
16.1156
16.4341
16.7623
17.0953
17.4407
17.7978
18.1662
18.5461
18.9382
19.3429
19.7608
20.1925
20.6386
21.0996
21.5763
22.0693
22.5794
23.1074
23.6539
24.22
24.8064
25.4141
26.0441
26.6975
27.3754
28.0789
28.8094
29.5682
30.3567
31.1765
32.0293
32.9167
33.8409
34.8038
35.8076
36.8548
37.948
39.09
40.2838
41.5326
42.84
44.2097
45.6459
47.1527
48.7349
50.3976
52.1461
53.9863
55.9246
57.9679
60.1238
62.4005
64.807
67.3535
70.051
72.9116
75.949
79.178
82.6153
86.2793
90.1902
94.3706
98.8452
103.642
108.791
114.326
120.286
126.713
133.656
141.169
149.315
158.025
167.572
178.025
189.463
202.006
215.803
231.023
247.871
266.583
287.443
310.788
337.024
366.652
400.175
438.007
482.109
533.117
592.568
662.434
745.269
844.411
964.28
1110.81
1292.15
1519.69
1809.78
2186.47
2686.02
3364.62
4312.6
5682.99
7754.33
11077.3
16832.3
27761.7
50853
105952
256504
734205
2.4197e+06
9.03583e+06
5.46442e+07
1.10267e+06
4534.02
24.8175
0.434083
0.0285489
0.00540461
0.00206865
0.00121066
0.000902822
0.000770258
0.000707119
0.000675418
0.000659013
0.000650363
0.000645799
0.000643361
0.000642092
0.000641412
0.000641083
0.000640871
0.00064076
0.000640701
0.000640671
0.000640656
0.00064065
0.000640647
0.000640578
0.000640648
0.00064065
0.000640583
0.000640655
0.000640657
0.000640659
0.000640592
0.000640664
0.000640598
0.000640669
0.000640602
0.000640674
0.000640677
0.000640679
0.000640612
0.000640683
0.000640686
0.000640689
0.000640691
0.000640693
0.000640696
0.000640698
0.000640701
0.000640703
0.000640705
0.000640708
0.00064071
0.000640713
0.000640715
0.000640718
0.00064072
0.000640722
0.000640725
0.000640728
0.00064073
0.000640732
0.000640735
0.000640738
0.00064074
0.000640743
0.000640745
0.000640678
0.000640681
0.000640683
0.000640755
0.000640758
0.000640761
0.000640693
0.000640765
0.000640767
0.00064077
0.000640772
0.000640775
0.000640708
0.00064078
0.000640782
0.000640716
0.000640787
0.000640789
0.000640793
0.000640795
0.000640797
0.0006408
0.000640802
0.000640804
0.000640807
0.00064081
0.000640812
0.000640814
0.000640816
0.000640819
0.000640822
0.000640825
0.000640827
0.000640829
0.000640831
0.000640834
0.000640767
0.000640839
0.000640841
0.000640844
0.000640846
0.000640849
0.000640851
0.000640854
0.000640856
0.000640858
0.000640861
0.000640863
0.000640866
0.000640868
0.000640802
0.000640804
0.000640876
0.00064081
0.000640881
0.000640884
0.000640886
0.000640819
0.00064089
0.000640893
0.000640826
0.000640898
0.000640831
0.000640902
0.000640905
0.000640907
0.00064091
0.000640843
0.000640914
0.000640918
0.000640851
0.000640923
0.000640925
0.000640927
0.00064093
0.000640932
0.000640933
0.000640868
0.000640939
0.000640874
0.000640945
0.000640947
0.000640881
0.000640952
0.000640955
0.000640957
0.00064096
0.000640962
0.000640965
0.000640966
0.000640969
0.000640972
0.000640974
0.000640976
0.000640979
0.000640981
0.000640984
0.000640986
0.000640989
0.000640991
0.000640993
0.000640996
0.000640929
0.000640931
0.000640934
0.000641005
0.000641008
0.00064101
0.000641014
0.000641016
0.000640949
0.000641021
0.000641022
0.000641026
0.000641028
0.000641031
0.000641033
0.000641035
0.000641038
0.000641041
0.000641043
0.000641046
0.000641048
0.00064105
0.000641053
0.000641056
0.000641058
0.000641061
0.000641063
0.000641065
0.000641067
0.00064107
0.000641072
0.000641006
0.000641008
0.00064108
0.000641082
0.000641085
0.000641088
0.000641021
0.000641093
0.000641095
0.000641098
0.0006411
0.000641103
0.000641036
0.000641039
0.00064111
0.000641113
0.000641115
0.000641118
0.000641121
0.000641122
0.000641125
0.000641128
0.000641061
0.000641132
0.000641135
0.000641068
0.00064114
0.000641143
0.000641145
0.000641148
0.00064115
0.000641153
0.000641156
0.000641158
0.00064116
0.000641163
0.000641166
0.000641168
0.00064117
0.000641104
0.000641105
0.000641178
0.000641181
0.000641183
0.000641185
0.000641188
0.00064119
0.000641192
0.000641195
0.000641197
0.000641201
0.000641203
0.000641205
0.000641139
0.000641211
0.000641143
0.000641215
0.000641218
0.000641221
0.000641223
0.000641226
0.000641229
0.000641231
0.000641234
0.000641168
0.00064117
0.000641242
0.000641244
0.000641246
0.000641249
0.000641252
0.000641186
0.000641257
0.00064126
0.000641193
0.000641265
0.000641198
0.000641269
0.000641272
0.000641274
0.000641208
0.00064128
0.000641213
0.000641285
0.000641287
0.00064129
0.000641223
0.000641157
0.000641229
0.000641231
0.000641233
0.000641236
0.000641239
0.000641241
0.000641244
0.000641246
0.000641248
0.000641182
0.000641254
0.000641187
0.00064126
0.000641262
0.000641265
0.000641268
0.00064127
0.000641273
0.000641276
0.000641277
0.000641281
0.000641283
0.000641216
0.000641288
0.000641291
0.000641293
0.000641296
0.000641298
0.0006413
0.000641303
0.000641305
0.000641309
0.000641311
0.000641314
0.000641316
0.000641318
0.000641322
0.000641324
0.000641326
0.000641329
0.000641332
0.000641334
0.000641267
0.00064134
0.000641342
0.000641345
0.000641347
0.00064135
0.000641283
0.000641354
0.000641358
0.00064136
0.000641293
0.000641366
0.000641368
0.000641371
0.000641373
0.000641376
0.000641378
0.000641381
0.000641384
0.000641385
0.000641389
0.000641392
0.000641394
0.000641397
0.000641399
0.000641402
0.000641405
0.000641338
0.000641341
0.000641412
0.000641346
0.000641418
0.00064142
0.000641423
0.000641357
0.000641428
0.00064143
0.000641433
0.000641366
0.000641438
0.000641441
0.000641443
0.000641446
0.000641449
0.000641451
0.000641454
0.000641457
0.00064146
0.000641462
0.000641465
0.000641468
0.00064147
0.000641404
0.000641475
0.000641409
0.000641481
0.000641483
0.000641486
0.000641488
0.000641492
0.000641494
0.000641496
0.000641499
0.000641502
0.000641504
0.000641507
0.00064144
0.000641512
0.000641514
0.000641518
0.000641451
0.000641522
0.000641456
0.000641528
0.000641531
0.000641533
0.000641467
0.000641538
0.000641541
0.000641544
0.000641546
0.000641549
0.000641552
0.000641554
0.000641556
0.000641559
0.000641562
0.000641565
0.000641567
0.00064157
0.000641572
0.000641575
0.000641509
0.00064158
0.000641582
0.000641585
0.000641588
0.000641591
0.000641524
0.000641596
0.000641598
0.000641601
0.000641604
0.000641606
0.000641609
0.000641612
0.000641615
0.000641617
0.00064162
0.000641553
0.000641625
0.000641627
0.000641631
0.000641633
0.000641636
0.000641638
0.000641642
0.000641575
0.000641647
0.000641649
0.000641651
0.000641655
0.000641657
0.00064166
0.000641593
0.000641665
0.000641667
0.00064167
0.000641672
0.000641674
0.000641678
0.000641681
0.000641684
0.000641686
0.00064162
0.000641692
0.000641626
0.000641697
0.0006417
0.000641703
0.000641705
0.000641707
0.00064171
0.000641713
0.000641645
0.000641718
0.000641721
0.000641723
0.000641726
0.000641729
0.000641731
0.000641734
0.000641736
0.000641739
0.000641741
0.000641744
0.000641748
0.000641751
0.000641685
0.000641756
0.000641758
0.000641692
0.000641764
0.000641767
0.000641769
0.000641771
0.000641775
0.000641777
0.000641779
0.000641782
0.000641785
0.000641788
0.00064179
0.000641792
0.000641795
0.000641798
0.0006418
0.000641802
0.000641806
0.000641807
0.000641811
0.000641744
0.000641747
0.000641818
0.000641822
0.000641755
0.000641827
0.000641829
0.000641833
0.000641835
0.000641838
0.000641841
0.000641844
0.000641847
0.000641849
0.000641852
0.000641854
0.000641857
0.000641859
0.000641864
0.000641866
0.000641799
0.000641871
0.000641874
0.000641876
0.000641879
0.000641813
0.000641885
0.000641887
0.00064189
0.000641893
0.000641895
0.000641898
0.0006419
0.000641902
0.000641905
0.000641909
0.000641911
0.000641914
0.000641916
0.000641918
0.000641922
0.000641924
0.000641927
0.000641929
0.000641932
0.000641935
0.000641938
0.00064194
0.000641943
0.000641876
0.000641949
0.000641883
0.000641954
0.000641958
0.000641959
0.000641893
0.000641896
0.000641968
0.00064197
0.000641973
0.000641906
0.000641978
0.000641981
0.000641983
0.000641987
0.00064199
0.000641992
0.000641926
0.000641997
0.000642
0.000641934
0.000641937
0.000641939
0.000641942
0.000641944
0.000641947
0.00064195
0.000641953
0.000641956
0.000641958
0.00064196
0.000641964
0.000641966
0.0006419
0.000641971
0.000641905
0.000641977
0.00064191
0.000641982
0.000641986
0.000641988
0.000641991
0.000641994
0.000641996
0.000641999
0.000642002
0.000642005
0.000642007
0.00064201
0.000642012
0.000642016
0.000642018
0.000642021
0.000642024
0.000642027
0.00064203
0.000642032
0.000642035
0.000642037
0.00064204
0.000642043
0.000642046
0.000642048
0.000642051
0.000641985
0.000642056
0.000642059
0.000642062
0.000642065
0.000641998
0.00064207
0.000642073
0.000642076
0.000642079
0.000642081
0.000642084
0.000642086
0.000642089
0.000642093
0.000642095
0.000642098
0.0006421
0.000642103
0.000642106
0.000642109
0.000642112
0.000642114
0.000642117
0.000642121
0.000642123
0.000642126
0.000642128
0.000642131
0.000642134
0.000642067
0.00064214
0.000642142
0.000642145
0.000642147
0.000642151
0.000642153
0.000642155
0.000642158
0.000642161
0.000642164
0.000642167
0.00064217
0.000642173
0.000642176
0.000642178
0.000642181
0.000642184
0.000642187
0.000642189
0.000642124
0.000642195
0.000642198
0.000642131
0.000642203
0.000642206
0.000642209
0.000642212
0.000642215
0.000642217
0.00064215
0.000642223
0.000642226
0.000642228
0.000642232
0.000642234
0.000642237
0.000642239
0.000642242
0.000642245
0.000642247
0.00064225
0.000642253
0.000642256
0.000642189
0.000642261
0.000642265
0.000642268
)
;

boundaryField
{
    fixedWall
    {
        type            calculated;
        value           uniform 0;
    }
    outlet
    {
        type            calculated;
        value           uniform 0;
    }
    defaultFaces
    {
        type            empty;
    }
}


// ************************************************************************* //
