/*--------------------------------*- C++ -*----------------------------------*\
| =========                 |                                                 |
| \\      /  F ield         | OpenFOAM: The Open Source CFD Toolbox           |
|  \\    /   O peration     | Version:  2406                                  |
|   \\  /    A nd           | Website:  www.openfoam.com                      |
|    \\/     M anipulation  |                                                 |
\*---------------------------------------------------------------------------*/
FoamFile
{
    version     2.0;
    format      ascii;
    arch        "LSB;label=32;scalar=64";
    class       volVectorField;
    location    "1.9";
    object      U;
}
// * * * * * * * * * * * * * * * * * * * * * * * * * * * * * * * * * * * * * //

dimensions      [0 1 -1 0 0 0 0];

internalField   nonuniform List<vector> 
1000
(
(-1.98825e-05 0 0)
(-7.92448e-05 0 0)
(-0.00017641 0 0)
(-0.000295005 0 0)
(-0.00042678 0 0)
(-0.000567346 0 0)
(-0.000713961 0 0)
(-0.000864575 0 0)
(-0.0010176 0 0)
(-0.0011718 0 0)
(-0.0013262 0 0)
(-0.00148 0 0)
(-0.00163255 0 0)
(-0.0017833 0 0)
(-0.00193179 0 0)
(-0.00207765 0 0)
(-0.00222054 0 0)
(-0.0023602 0 0)
(-0.00249638 0 0)
(-0.00262891 0 0)
(-0.00275762 0 0)
(-0.00288239 0 0)
(-0.00300311 0 0)
(-0.00311971 0 0)
(-0.00323215 0 0)
(-0.00334039 0 0)
(-0.00344442 0 0)
(-0.00354424 0 0)
(-0.00363987 0 0)
(-0.00373135 0 0)
(-0.00381874 0 0)
(-0.00390208 0 0)
(-0.00398145 0 0)
(-0.00405693 0 0)
(-0.00412861 0 0)
(-0.00419658 0 0)
(-0.00426096 0 0)
(-0.00432184 0 0)
(-0.00437935 0 0)
(-0.0044336 0 0)
(-0.00448472 0 0)
(-0.00453283 0 0)
(-0.00457807 0 0)
(-0.00462057 0 0)
(-0.00466031 0 0)
(-0.00469745 0 0)
(-0.00473228 0 0)
(-0.00476493 0 0)
(-0.00479549 0 0)
(-0.00482406 0 0)
(-0.00485077 0 0)
(-0.00487571 0 0)
(-0.004899 0 0)
(-0.00492074 0 0)
(-0.00494104 0 0)
(-0.00496001 0 0)
(-0.00497773 0 0)
(-0.00499431 0 0)
(-0.00500982 0 0)
(-0.00502437 0 0)
(-0.00503802 0 0)
(-0.00505086 0 0)
(-0.00506297 0 0)
(-0.00507438 0 0)
(-0.00508519 0 0)
(-0.00509545 0 0)
(-0.00510521 0 0)
(-0.00511453 0 0)
(-0.00512344 0 0)
(-0.00513198 0 0)
(-0.00514023 0 0)
(-0.00514821 0 0)
(-0.00515592 0 0)
(-0.00516342 0 0)
(-0.00517074 0 0)
(-0.00517789 0 0)
(-0.00518492 0 0)
(-0.00519181 0 0)
(-0.00519861 0 0)
(-0.00520531 0 0)
(-0.00521195 0 0)
(-0.00521862 0 0)
(-0.00522481 0 0)
(-0.00523187 0 0)
(-0.00523818 0 0)
(-0.00524423 0 0)
(-0.00525108 0 0)
(-0.00525731 0 0)
(-0.00526378 0 0)
(-0.00527019 0 0)
(-0.0052766 0 0)
(-0.00528302 0 0)
(-0.00528938 0 0)
(-0.00529598 0 0)
(-0.00530211 0 0)
(-0.00530862 0 0)
(-0.00531568 0 0)
(-0.00532152 0 0)
(-0.00532791 0 0)
(-0.00533469 0 0)
(-0.00534099 0 0)
(-0.00534753 0 0)
(-0.00535402 0 0)
(-0.00536051 0 0)
(-0.00536701 0 0)
(-0.00537352 0 0)
(-0.00538002 0 0)
(-0.00538653 0 0)
(-0.00539305 0 0)
(-0.00539956 0 0)
(-0.00540608 0 0)
(-0.0054126 0 0)
(-0.00541912 0 0)
(-0.00542564 0 0)
(-0.00543216 0 0)
(-0.00543868 0 0)
(-0.0054452 0 0)
(-0.00545172 0 0)
(-0.00545824 0 0)
(-0.00546476 0 0)
(-0.00547129 0 0)
(-0.00547781 0 0)
(-0.00548433 0 0)
(-0.00549086 0 0)
(-0.00549738 0 0)
(-0.00550391 0 0)
(-0.00551044 0 0)
(-0.00551698 0 0)
(-0.00552351 0 0)
(-0.00553005 0 0)
(-0.0055366 0 0)
(-0.00554314 0 0)
(-0.0055497 0 0)
(-0.00555625 0 0)
(-0.00556281 0 0)
(-0.00556938 0 0)
(-0.00557596 0 0)
(-0.00558254 0 0)
(-0.00558912 0 0)
(-0.00559572 0 0)
(-0.00560231 0 0)
(-0.00560892 0 0)
(-0.00561553 0 0)
(-0.00562215 0 0)
(-0.00562877 0 0)
(-0.00563539 0 0)
(-0.00564203 0 0)
(-0.00564866 0 0)
(-0.0056553 0 0)
(-0.00566195 0 0)
(-0.0056686 0 0)
(-0.00567525 0 0)
(-0.0056819 0 0)
(-0.00568855 0 0)
(-0.0056952 0 0)
(-0.00570185 0 0)
(-0.00570851 0 0)
(-0.00571516 0 0)
(-0.00572181 0 0)
(-0.00572845 0 0)
(-0.00573509 0 0)
(-0.00574173 0 0)
(-0.00574837 0 0)
(-0.005755 0 0)
(-0.00576163 0 0)
(-0.00576825 0 0)
(-0.00577487 0 0)
(-0.00578149 0 0)
(-0.0057881 0 0)
(-0.0057947 0 0)
(-0.00580131 0 0)
(-0.00580791 0 0)
(-0.0058145 0 0)
(-0.0058211 0 0)
(-0.00582769 0 0)
(-0.00583429 0 0)
(-0.00584088 0 0)
(-0.00584747 0 0)
(-0.00585407 0 0)
(-0.00586066 0 0)
(-0.00586726 0 0)
(-0.00587386 0 0)
(-0.00588046 0 0)
(-0.00588707 0 0)
(-0.00589368 0 0)
(-0.00590029 0 0)
(-0.00590691 0 0)
(-0.00591354 0 0)
(-0.00592017 0 0)
(-0.0059268 0 0)
(-0.00593343 0 0)
(-0.00594007 0 0)
(-0.00594671 0 0)
(-0.00595335 0 0)
(-0.00596 0 0)
(-0.00596664 0 0)
(-0.00597329 0 0)
(-0.00597993 0 0)
(-0.00598658 0 0)
(-0.00599322 0 0)
(-0.00599985 0 0)
(-0.00600648 0 0)
(-0.00601311 0 0)
(-0.00601973 0 0)
(-0.00602635 0 0)
(-0.00603296 0 0)
(-0.00603956 0 0)
(-0.00604615 0 0)
(-0.00605274 0 0)
(-0.00605933 0 0)
(-0.0060659 0 0)
(-0.00607248 0 0)
(-0.00607905 0 0)
(-0.00608561 0 0)
(-0.00609218 0 0)
(-0.00609874 0 0)
(-0.00610531 0 0)
(-0.00611187 0 0)
(-0.00611844 0 0)
(-0.00612502 0 0)
(-0.00613159 0 0)
(-0.00613818 0 0)
(-0.00614476 0 0)
(-0.00615135 0 0)
(-0.00615795 0 0)
(-0.00616454 0 0)
(-0.00617114 0 0)
(-0.00617774 0 0)
(-0.00618434 0 0)
(-0.00619094 0 0)
(-0.00619753 0 0)
(-0.00620412 0 0)
(-0.0062107 0 0)
(-0.00621727 0 0)
(-0.00622383 0 0)
(-0.00623039 0 0)
(-0.00623695 0 0)
(-0.00624349 0 0)
(-0.00625004 0 0)
(-0.00625657 0 0)
(-0.00626311 0 0)
(-0.0062695 0 0)
(-0.0062766 0 0)
(-0.00628181 0 0)
(-0.00628981 0 0)
(-0.0062963 0 0)
(-0.00630133 0 0)
(-0.00630909 0 0)
(-0.00631497 0 0)
(-0.00632152 0 0)
(-0.00632789 0 0)
(-0.00633421 0 0)
(-0.00634049 0 0)
(-0.00634672 0 0)
(-0.00635291 0 0)
(-0.00635907 0 0)
(-0.0063652 0 0)
(-0.00637131 0 0)
(-0.00637742 0 0)
(-0.00638355 0 0)
(-0.0063897 0 0)
(-0.00639588 0 0)
(-0.00640212 0 0)
(-0.0064084 0 0)
(-0.00641474 0 0)
(-0.00642112 0 0)
(-0.00642755 0 0)
(-0.00643401 0 0)
(-0.00644049 0 0)
(-0.00644699 0 0)
(-0.00645334 0 0)
(-0.00646034 0 0)
(-0.00646603 0 0)
(-0.00647274 0 0)
(-0.00648083 0 0)
(-0.00648573 0 0)
(-0.00649167 0 0)
(-0.00649857 0 0)
(-0.00650393 0 0)
(-0.00650929 0 0)
(-0.00651389 0 0)
(-0.00651769 0 0)
(-0.00652046 0 0)
(-0.00652203 0 0)
(-0.00652147 0 0)
(-0.00651872 0 0)
(-0.00651268 0 0)
(-0.00650285 0 0)
(-0.00648238 0 0)
(-0.00643652 0 0)
(-0.00638267 0 0)
(-0.0064334 0 0)
(-0.00630056 0 0)
(-0.00626988 0 0)
(0.000965834 0 0)
(0.0324105 0 0)
(0.0740677 0 0)
(0.0978172 0 0)
(0.107751 0 0)
(0.111867 0 0)
(0.113478 0 0)
(0.114066 0 0)
(0.114302 0 0)
(0.114344 0 0)
(0.11444 0 0)
(0.114468 0 0)
(0.114482 0 0)
(0.114294 0 0)
(0.114525 0 0)
(0.114541 0 0)
(0.114218 0 0)
(0.114528 0 0)
(0.114523 0 0)
(0.114202 0 0)
(0.114512 0 0)
(0.114447 0 0)
(0.114313 0 0)
(0.114413 0 0)
(0.11436 0 0)
(0.114398 0 0)
(0.114358 0 0)
(0.114348 0 0)
(0.114357 0 0)
(0.114361 0 0)
(0.114308 0 0)
(0.114394 0 0)
(0.114221 0 0)
(0.114362 0 0)
(0.114423 0 0)
(0.114153 0 0)
(0.114363 0 0)
(0.114352 0 0)
(0.114216 0 0)
(0.114289 0 0)
(0.114323 0 0)
(0.114232 0 0)
(0.114238 0 0)
(0.11437 0 0)
(0.114132 0 0)
(0.11425 0 0)
(0.114387 0 0)
(0.114056 0 0)
(0.114265 0 0)
(0.114329 0 0)
(0.114102 0 0)
(0.11429 0 0)
(0.114104 0 0)
(0.114206 0 0)
(0.114317 0 0)
(0.114121 0 0)
(0.114113 0 0)
(0.114291 0 0)
(0.114034 0 0)
(0.114205 0 0)
(0.114251 0 0)
(0.114022 0 0)
(0.114226 0 0)
(0.114057 0 0)
(0.114203 0 0)
(0.114078 0 0)
(0.114081 0 0)
(0.114239 0 0)
(0.114058 0 0)
(0.114045 0 0)
(0.114118 0 0)
(0.114121 0 0)
(0.114041 0 0)
(0.114113 0 0)
(0.114021 0 0)
(0.114125 0 0)
(0.114041 0 0)
(0.113995 0 0)
(0.11419 0 0)
(0.113875 0 0)
(0.114099 0 0)
(0.114099 0 0)
(0.113919 0 0)
(0.114108 0 0)
(0.113924 0 0)
(0.114028 0 0)
(0.114094 0 0)
(0.113877 0 0)
(0.114076 0 0)
(0.113918 0 0)
(0.113979 0 0)
(0.114055 0 0)
(0.1139 0 0)
(0.113974 0 0)
(0.113971 0 0)
(0.11387 0 0)
(0.114014 0 0)
(0.114011 0 0)
(0.113761 0 0)
(0.114043 0 0)
(0.113902 0 0)
(0.113917 0 0)
(0.113902 0 0)
(0.113894 0 0)
(0.113964 0 0)
(0.1138 0 0)
(0.113948 0 0)
(0.113817 0 0)
(0.113951 0 0)
(0.113839 0 0)
(0.11385 0 0)
(0.113971 0 0)
(0.113659 0 0)
(0.113964 0 0)
(0.113898 0 0)
(0.113748 0 0)
(0.113865 0 0)
(0.113815 0 0)
(0.113857 0 0)
(0.113733 0 0)
(0.113881 0 0)
(0.113845 0 0)
(0.113719 0 0)
(0.113824 0 0)
(0.113796 0 0)
(0.113782 0 0)
(0.113787 0 0)
(0.113745 0 0)
(0.113808 0 0)
(0.113709 0 0)
(0.113766 0 0)
(0.113829 0 0)
(0.113664 0 0)
(0.113793 0 0)
(0.113659 0 0)
(0.113794 0 0)
(0.113752 0 0)
(0.113667 0 0)
(0.113725 0 0)
(0.113706 0 0)
(0.113751 0 0)
(0.113653 0 0)
(0.113701 0 0)
(0.11372 0 0)
(0.113599 0 0)
(0.113749 0 0)
(0.113715 0 0)
(0.113586 0 0)
(0.113692 0 0)
(0.113663 0 0)
(0.113651 0 0)
(0.113659 0 0)
(0.113615 0 0)
(0.113686 0 0)
(0.113543 0 0)
(0.113678 0 0)
(0.113695 0 0)
(0.11354 0 0)
(0.113559 0 0)
(0.113684 0 0)
(0.113644 0 0)
(0.113525 0 0)
(0.113598 0 0)
(0.113635 0 0)
(0.113494 0 0)
(0.113611 0 0)
(0.113652 0 0)
(0.113474 0 0)
(0.113602 0 0)
(0.113532 0 0)
(0.11359 0 0)
(0.11351 0 0)
(0.113548 0 0)
(0.113592 0 0)
(0.113455 0 0)
(0.113604 0 0)
(0.113442 0 0)
(0.113538 0 0)
(0.113594 0 0)
(0.113424 0 0)
(0.113504 0 0)
(0.113511 0 0)
(0.11359 0 0)
(0.11333 0 0)
(0.113535 0 0)
(0.113582 0 0)
(0.11334 0 0)
(0.113547 0 0)
(0.113416 0 0)
(0.113493 0 0)
(0.1135 0 0)
(0.113385 0 0)
(0.113453 0 0)
(0.113444 0 0)
(0.11348 0 0)
(0.113391 0 0)
(0.113429 0 0)
(0.113454 0 0)
(0.113342 0 0)
(0.113478 0 0)
(0.113448 0 0)
(0.113317 0 0)
(0.113468 0 0)
(0.113322 0 0)
(0.113435 0 0)
(0.113464 0 0)
(0.113211 0 0)
(0.113499 0 0)
(0.113351 0 0)
(0.113323 0 0)
(0.113487 0 0)
(0.113216 0 0)
(0.113404 0 0)
(0.113389 0 0)
(0.113316 0 0)
(0.113292 0 0)
(0.113384 0 0)
(0.113407 0 0)
(0.113154 0 0)
(0.113432 0 0)
(0.113389 0 0)
(0.113136 0 0)
(0.113418 0 0)
(0.113334 0 0)
(0.113234 0 0)
(0.113329 0 0)
(0.113284 0 0)
(0.113307 0 0)
(0.113202 0 0)
(0.113347 0 0)
(0.113348 0 0)
(0.113103 0 0)
(0.11337 0 0)
(0.113332 0 0)
(0.113077 0 0)
(0.113361 0 0)
(0.113289 0 0)
(0.113153 0 0)
(0.113305 0 0)
(0.113166 0 0)
(0.113278 0 0)
(0.113302 0 0)
(0.113057 0 0)
(0.113321 0 0)
(0.113284 0 0)
(0.113038 0 0)
(0.113322 0 0)
(0.113215 0 0)
(0.11315 0 0)
(0.113193 0 0)
(0.113196 0 0)
(0.11324 0 0)
(0.113124 0 0)
(0.113175 0 0)
(0.113155 0 0)
(0.113222 0 0)
(0.113212 0 0)
(0.113016 0 0)
(0.113244 0 0)
(0.113222 0 0)
(0.112973 0 0)
(0.113269 0 0)
(0.11317 0 0)
(0.113068 0 0)
(0.113124 0 0)
(0.113148 0 0)
(0.11316 0 0)
(0.113081 0 0)
(0.113131 0 0)
(0.113126 0 0)
(0.113037 0 0)
(0.113176 0 0)
(0.113121 0 0)
(0.113046 0 0)
(0.113102 0 0)
(0.113074 0 0)
(0.11317 0 0)
(0.112948 0 0)
(0.113148 0 0)
(0.11313 0 0)
(0.113003 0 0)
(0.113017 0 0)
(0.11313 0 0)
(0.113106 0 0)
(0.112956 0 0)
(0.113104 0 0)
(0.113036 0 0)
(0.113044 0 0)
(0.113024 0 0)
(0.11307 0 0)
(0.112943 0 0)
(0.113089 0 0)
(0.113073 0 0)
(0.112999 0 0)
(0.112943 0 0)
(0.113045 0 0)
(0.113088 0 0)
(0.112901 0 0)
(0.113069 0 0)
(0.112934 0 0)
(0.113029 0 0)
(0.113055 0 0)
(0.112911 0 0)
(0.112993 0 0)
(0.11299 0 0)
(0.112982 0 0)
(0.112959 0 0)
(0.112989 0 0)
(0.112899 0 0)
(0.113041 0 0)
(0.112968 0 0)
(0.1129 0 0)
(0.112973 0 0)
(0.112931 0 0)
(0.112983 0 0)
(0.112922 0 0)
(0.112917 0 0)
(0.112966 0 0)
(0.112904 0 0)
(0.112927 0 0)
(0.112959 0 0)
(0.11289 0 0)
(0.112915 0 0)
(0.112929 0 0)
(0.112897 0 0)
(0.112899 0 0)
(0.11292 0 0)
(0.112843 0 0)
(0.112974 0 0)
(0.11284 0 0)
(0.112861 0 0)
(0.112972 0 0)
(0.112879 0 0)
(0.112796 0 0)
(0.112922 0 0)
(0.112871 0 0)
(0.112849 0 0)
(0.112893 0 0)
(0.112846 0 0)
(0.112855 0 0)
(0.11288 0 0)
(0.11278 0 0)
(0.112917 0 0)
(0.112857 0 0)
(0.112816 0 0)
(0.112808 0 0)
(0.112838 0 0)
(0.112931 0 0)
(0.112706 0 0)
(0.112859 0 0)
(0.112906 0 0)
(0.112681 0 0)
(0.112884 0 0)
(0.112871 0 0)
(0.112718 0 0)
(0.112859 0 0)
(0.112779 0 0)
(0.112794 0 0)
(0.112843 0 0)
(0.112737 0 0)
(0.11284 0 0)
(0.112713 0 0)
(0.112833 0 0)
(0.112851 0 0)
(0.112676 0 0)
(0.112811 0 0)
(0.112779 0 0)
(0.112765 0 0)
(0.112785 0 0)
(0.112657 0 0)
(0.11283 0 0)
(0.112864 0 0)
(0.112629 0 0)
(0.112761 0 0)
(0.11285 0 0)
(0.112592 0 0)
(0.11284 0 0)
(0.112718 0 0)
(0.112739 0 0)
(0.112773 0 0)
(0.112663 0 0)
(0.112745 0 0)
(0.112723 0 0)
(0.112769 0 0)
(0.112655 0 0)
(0.112752 0 0)
(0.112743 0 0)
(0.112654 0 0)
(0.112729 0 0)
(0.11269 0 0)
(0.112747 0 0)
(0.112657 0 0)
(0.11269 0 0)
(0.11276 0 0)
(0.112583 0 0)
(0.112736 0 0)
(0.112775 0 0)
(0.112541 0 0)
(0.112747 0 0)
(0.112655 0 0)
(0.112685 0 0)
(0.112743 0 0)
(0.112509 0 0)
(0.112765 0 0)
(0.112708 0 0)
(0.112584 0 0)
(0.112682 0 0)
(0.112634 0 0)
(0.112677 0 0)
(0.112642 0 0)
(0.112672 0 0)
(0.112575 0 0)
(0.112689 0 0)
(0.112681 0 0)
(0.112578 0 0)
(0.112603 0 0)
(0.112684 0 0)
(0.112683 0 0)
(0.112481 0 0)
(0.11273 0 0)
(0.112673 0 0)
(0.112444 0 0)
(0.11272 0 0)
(0.112671 0 0)
(0.112526 0 0)
(0.112638 0 0)
(0.112542 0 0)
(0.112677 0 0)
(0.11265 0 0)
(0.112442 0 0)
(0.112699 0 0)
(0.112647 0 0)
(0.11244 0 0)
(0.112684 0 0)
(0.11264 0 0)
(0.112455 0 0)
(0.112659 0 0)
(0.112582 0 0)
(0.112546 0 0)
(0.112609 0 0)
(0.11256 0 0)
(0.112523 0 0)
(0.112611 0 0)
(0.112539 0 0)
(0.112584 0 0)
(0.1126 0 0)
(0.112481 0 0)
(0.112596 0 0)
(0.112493 0 0)
(0.112624 0 0)
(0.112528 0 0)
(0.112544 0 0)
(0.112539 0 0)
(0.112547 0 0)
(0.112569 0 0)
(0.112497 0 0)
(0.112497 0 0)
(0.112582 0 0)
(0.112579 0 0)
(0.112447 0 0)
(0.112556 0 0)
(0.112518 0 0)
(0.112531 0 0)
(0.112502 0 0)
(0.112554 0 0)
(0.112443 0 0)
(0.112547 0 0)
(0.112573 0 0)
(0.112437 0 0)
(0.11253 0 0)
(0.112507 0 0)
(0.11244 0 0)
(0.112575 0 0)
(0.112511 0 0)
(0.112454 0 0)
(0.112462 0 0)
(0.112534 0 0)
(0.112537 0 0)
(0.112406 0 0)
(0.112527 0 0)
(0.112473 0 0)
(0.112468 0 0)
(0.112513 0 0)
(0.112459 0 0)
(0.112465 0 0)
(0.1125 0 0)
(0.112465 0 0)
(0.112446 0 0)
(0.112506 0 0)
(0.112425 0 0)
(0.112479 0 0)
(0.112504 0 0)
(0.112407 0 0)
(0.112456 0 0)
(0.112502 0 0)
(0.112433 0 0)
(0.112464 0 0)
(0.112391 0 0)
(0.112498 0 0)
(0.112507 0 0)
(0.112341 0 0)
(0.112494 0 0)
(0.112391 0 0)
(0.112508 0 0)
(0.112393 0 0)
(0.112434 0 0)
(0.112522 0 0)
(0.112361 0 0)
(0.112421 0 0)
(0.112447 0 0)
(0.112394 0 0)
(0.112488 0 0)
(0.112374 0 0)
(0.112418 0 0)
(0.112524 0 0)
(0.112261 0 0)
(0.112489 0 0)
(0.112475 0 0)
(0.112335 0 0)
(0.112444 0 0)
(0.11239 0 0)
(0.112424 0 0)
(0.112396 0 0)
(0.112426 0 0)
(0.112347 0 0)
(0.112472 0 0)
(0.112374 0 0)
(0.112399 0 0)
(0.112439 0 0)
(0.112339 0 0)
(0.112391 0 0)
(0.112398 0 0)
(0.112451 0 0)
(0.112324 0 0)
(0.11243 0 0)
(0.112332 0 0)
(0.112419 0 0)
(0.112448 0 0)
(0.11224 0 0)
(0.112482 0 0)
(0.112405 0 0)
(0.112298 0 0)
(0.11242 0 0)
(0.11231 0 0)
(0.112433 0 0)
(0.112415 0 0)
(0.112313 0 0)
(0.112356 0 0)
(0.112405 0 0)
(0.112301 0 0)
(0.112423 0 0)
(0.112409 0 0)
(0.112283 0 0)
(0.112333 0 0)
(0.112439 0 0)
(0.112341 0 0)
(0.112345 0 0)
(0.112352 0 0)
(0.112364 0 0)
(0.112397 0 0)
(0.112277 0 0)
(0.112373 0 0)
(0.11236 0 0)
(0.112347 0 0)
(0.112336 0 0)
(0.112358 0 0)
(0.112337 0 0)
(0.112345 0 0)
(0.112353 0 0)
(0.112237 0 0)
(0.112422 0 0)
(0.112438 0 0)
(0.11222 0 0)
(0.112337 0 0)
(0.11241 0 0)
(0.112249 0 0)
(0.112375 0 0)
(0.112345 0 0)
(0.112294 0 0)
(0.112342 0 0)
(0.112258 0 0)
(0.112407 0 0)
(0.112383 0 0)
(0.11229 0 0)
(0.112202 0 0)
(0.112419 0 0)
(0.112375 0 0)
(0.112237 0 0)
(0.112337 0 0)
(0.112264 0 0)
(0.112395 0 0)
(0.1123 0 0)
(0.112318 0 0)
(0.112315 0 0)
(0.112301 0 0)
(0.112372 0 0)
(0.112175 0 0)
(0.112414 0 0)
(0.11235 0 0)
(0.11215 0 0)
(0.112415 0 0)
(0.112339 0 0)
(0.112231 0 0)
(0.112374 0 0)
(0.1122 0 0)
(0.112372 0 0)
(0.112369 0 0)
(0.112186 0 0)
(0.112354 0 0)
(0.112238 0 0)
(0.112354 0 0)
(0.112356 0 0)
(0.112198 0 0)
(0.112329 0 0)
(0.112293 0 0)
(0.112295 0 0)
(0.112303 0 0)
(0.112292 0 0)
(0.112228 0 0)
(0.112378 0 0)
(0.112294 0 0)
(0.112244 0 0)
(0.11227 0 0)
(0.112316 0 0)
(0.112341 0 0)
(0.112213 0 0)
(0.112283 0 0)
(0.112318 0 0)
(0.112293 0 0)
(0.112264 0 0)
(0.112285 0 0)
(0.112272 0 0)
(0.112305 0 0)
(0.112262 0 0)
(0.112309 0 0)
(0.11222 0 0)
(0.112311 0 0)
(0.112332 0 0)
(0.1122 0 0)
(0.112313 0 0)
(0.112275 0 0)
(0.112264 0 0)
(0.112294 0 0)
(0.112252 0 0)
(0.112291 0 0)
(0.112229 0 0)
(0.112336 0 0)
(0.112303 0 0)
(0.112119 0 0)
(0.112404 0 0)
(0.112254 0 0)
(0.112255 0 0)
(0.112264 0 0)
(0.112271 0 0)
(0.112347 0 0)
(0.112127 0 0)
(0.112349 0 0)
(0.112321 0 0)
(0.112129 0 0)
(0.112359 0 0)
(0.112312 0 0)
(0.11213 0 0)
(0.112363 0 0)
(0.112313 0 0)
(0.112114 0 0)
(0.112364 0 0)
(0.112314 0 0)
(0.112178 0 0)
(0.112295 0 0)
(0.112204 0 0)
(0.11234 0 0)
(0.112309 0 0)
(0.112115 0 0)
(0.112354 0 0)
(0.112299 0 0)
(0.112195 0 0)
(0.112287 0 0)
(0.11223 0 0)
(0.112296 0 0)
(0.11229 0 0)
(0.112155 0 0)
(0.112358 0 0)
(0.112278 0 0)
(0.112196 0 0)
(0.112277 0 0)
(0.112252 0 0)
(0.112273 0 0)
(0.112269 0 0)
(0.112203 0 0)
(0.112313 0 0)
(0.11231 0 0)
(0.112124 0 0)
(0.112351 0 0)
(0.112301 0 0)
(0.112112 0 0)
(0.112382 0 0)
(0.112265 0 0)
(0.112191 0 0)
(0.112257 0 0)
(0.112289 0 0)
(0.112303 0 0)
(0.112182 0 0)
(0.112303 0 0)
(0.112192 0 0)
(0.112304 0 0)
(0.112251 0 0)
)
;

boundaryField
{
    fixedWall
    {
        type            fixedValue;
        value           uniform (0 0 0);
    }
    outlet
    {
        type            pressureInletOutletVelocity;
        value           uniform (0.112251 0 0);
    }
    defaultFaces
    {
        type            empty;
    }
}


// ************************************************************************* //
