/*--------------------------------*- C++ -*----------------------------------*\
| =========                 |                                                 |
| \\      /  F ield         | OpenFOAM: The Open Source CFD Toolbox           |
|  \\    /   O peration     | Version:  2406                                  |
|   \\  /    A nd           | Website:  www.openfoam.com                      |
|    \\/     M anipulation  |                                                 |
\*---------------------------------------------------------------------------*/
FoamFile
{
    version     2.0;
    format      ascii;
    arch        "LSB;label=32;scalar=64";
    class       volScalarField;
    location    "2.1";
    object      CO2;
}
// * * * * * * * * * * * * * * * * * * * * * * * * * * * * * * * * * * * * * //

dimensions      [0 0 0 0 0 0 0];

internalField   nonuniform List<scalar> 
1000
(
0.0709257
0.0709257
0.0709257
0.0709257
0.0709257
0.0709257
0.0709257
0.0709257
0.0709257
0.0709257
0.0709257
0.0709257
0.0709257
0.0709257
0.0709258
0.0709258
0.0709258
0.0709258
0.0709258
0.0709258
0.0709258
0.0709259
0.0709259
0.0709259
0.0709259
0.0709259
0.0709259
0.0709259
0.070926
0.070926
0.070926
0.070926
0.070926
0.070926
0.070926
0.070926
0.070926
0.0709261
0.0709261
0.0709261
0.0709261
0.0709261
0.0709261
0.0709261
0.0709261
0.0709261
0.0709261
0.0709261
0.0709261
0.0709261
0.0709261
0.0709261
0.0709261
0.0709261
0.0709261
0.0709261
0.0709261
0.0709261
0.0709261
0.0709261
0.0709261
0.0709261
0.0709261
0.0709261
0.0709261
0.0709261
0.0709261
0.0709261
0.0709261
0.0709261
0.0709261
0.070926
0.070926
0.070926
0.070926
0.070926
0.070926
0.070926
0.070926
0.070926
0.070926
0.070926
0.070926
0.070926
0.070926
0.070926
0.070926
0.070926
0.070926
0.070926
0.070926
0.070926
0.070926
0.070926
0.070926
0.070926
0.070926
0.0709259
0.0709259
0.0709259
0.0709259
0.0709259
0.0709259
0.0709259
0.0709259
0.0709259
0.0709259
0.0709259
0.0709259
0.0709259
0.0709259
0.0709259
0.0709259
0.0709259
0.0709259
0.0709259
0.0709259
0.0709259
0.0709258
0.0709258
0.0709258
0.0709258
0.0709258
0.0709258
0.0709258
0.0709258
0.0709258
0.0709258
0.0709258
0.0709258
0.0709258
0.0709258
0.0709258
0.0709258
0.0709258
0.0709258
0.0709257
0.0709257
0.0709257
0.0709257
0.0709257
0.0709257
0.0709257
0.0709257
0.0709257
0.0709257
0.0709257
0.0709257
0.0709257
0.0709257
0.0709257
0.0709256
0.0709256
0.0709256
0.0709256
0.0709256
0.0709256
0.0709256
0.0709256
0.0709256
0.0709256
0.0709256
0.0709256
0.0709256
0.0709255
0.0709255
0.0709255
0.0709255
0.0709255
0.0709255
0.0709255
0.0709255
0.0709255
0.0709255
0.0709255
0.0709254
0.0709254
0.0709254
0.0709254
0.0709254
0.0709254
0.0709254
0.0709254
0.0709254
0.0709254
0.0709253
0.0709253
0.0709253
0.0709253
0.0709253
0.0709253
0.0709253
0.0709253
0.0709252
0.0709252
0.0709252
0.0709252
0.0709252
0.0709252
0.0709252
0.0709251
0.0709251
0.0709251
0.0709251
0.0709251
0.0709251
0.0709251
0.070925
0.070925
0.070925
0.070925
0.070925
0.070925
0.0709249
0.0709249
0.0709249
0.0709249
0.0709249
0.0709248
0.0709248
0.0709248
0.0709248
0.0709248
0.0709247
0.0709247
0.0709247
0.0709247
0.0709246
0.0709246
0.0709246
0.0709246
0.0709245
0.0709245
0.0709245
0.0709245
0.0709244
0.0709244
0.0709244
0.0709243
0.0709243
0.0709243
0.0709242
0.0709242
0.0709242
0.0709241
0.0709241
0.0709241
0.070924
0.070924
0.070924
0.0709239
0.0709239
0.0709238
0.0709238
0.0709237
0.0709237
0.0709236
0.0709236
0.0709235
0.0709235
0.0709234
0.0709234
0.0709233
0.0709232
0.0709232
0.0709231
0.070923
0.070923
0.0709229
0.0709228
0.0709227
0.0709227
0.0709226
0.0709225
0.0709224
0.0709223
0.0709222
0.0709221
0.070922
0.0709218
0.0709217
0.0709216
0.0709214
0.0709213
0.0709212
0.070921
0.0709208
0.0709207
0.0709205
0.0709203
0.0709201
0.0709198
0.0709196
0.0709193
0.0709191
0.0709188
0.0709184
0.0709181
0.0709177
0.0709173
0.0709169
0.0709164
0.0709159
0.0709153
0.0709146
0.0709139
0.0709131
0.0709122
0.0709112
0.0709101
0.0709087
0.0709072
0.0709054
0.0709033
0.0709006
0.0708974
0.0708933
0.0708879
0.0708806
0.0708704
0.0708556
0.0708322
0.0707921
0.0707152
0.0705478
0.0701128
0.0687712
0.0640118
0.0376181
0.0192295
0.00973258
0.00489905
0.00245854
0.00123178
0.000616604
0.00030852
0.000154338
7.72034e-05
3.86198e-05
1.93199e-05
9.66523e-06
4.83527e-06
2.41884e-06
1.20992e-06
6.05136e-07
3.02619e-07
1.5132e-07
7.5675e-08
3.78511e-08
1.89449e-08
9.50727e-09
4.77304e-09
2.43867e-09
1.24768e-09
7.10312e-10
4.87982e-10
3.10992e-10
1.9469e-10
1.41348e-10
1.18151e-10
1.03444e-10
9.46821e-11
9.09199e-11
8.88253e-11
8.7092e-11
8.62531e-11
8.55803e-11
8.53416e-11
8.51492e-11
8.50395e-11
8.49983e-11
8.49608e-11
8.494e-11
8.49302e-11
8.49209e-11
8.49183e-11
8.49157e-11
8.49149e-11
8.49142e-11
8.49138e-11
8.49138e-11
8.49137e-11
8.49138e-11
8.49139e-11
8.4914e-11
8.49141e-11
8.49143e-11
8.49144e-11
8.49145e-11
8.49146e-11
8.49148e-11
8.49149e-11
8.49151e-11
8.49152e-11
8.49153e-11
8.49155e-11
8.49156e-11
8.49157e-11
8.49159e-11
8.49161e-11
8.49162e-11
8.49163e-11
8.49164e-11
8.49166e-11
8.49168e-11
8.49169e-11
8.4917e-11
8.49172e-11
8.49173e-11
8.49174e-11
8.49176e-11
8.49177e-11
8.49179e-11
8.4918e-11
8.49181e-11
8.49183e-11
8.49184e-11
8.49185e-11
8.49187e-11
8.49188e-11
8.4919e-11
8.49191e-11
8.49193e-11
8.49194e-11
8.49195e-11
8.49197e-11
8.49198e-11
8.492e-11
8.49201e-11
8.49202e-11
8.49204e-11
8.49205e-11
8.49207e-11
8.49208e-11
8.49209e-11
8.49211e-11
8.49212e-11
8.49214e-11
8.49215e-11
8.49216e-11
8.49218e-11
8.49219e-11
8.4922e-11
8.49222e-11
8.49223e-11
8.49225e-11
8.49226e-11
8.49227e-11
8.49228e-11
8.4923e-11
8.49231e-11
8.49233e-11
8.49234e-11
8.49235e-11
8.49237e-11
8.49238e-11
8.49239e-11
8.49241e-11
8.49242e-11
8.49243e-11
8.49245e-11
8.49246e-11
8.49248e-11
8.4925e-11
8.49251e-11
8.49252e-11
8.49254e-11
8.49256e-11
8.49257e-11
8.49258e-11
8.49259e-11
8.49261e-11
8.49262e-11
8.49263e-11
8.49265e-11
8.49266e-11
8.49268e-11
8.49269e-11
8.4927e-11
8.49271e-11
8.49273e-11
8.49274e-11
8.49276e-11
8.49277e-11
8.49279e-11
8.4928e-11
8.49282e-11
8.49283e-11
8.49284e-11
8.49286e-11
8.49288e-11
8.49289e-11
8.4929e-11
8.49291e-11
8.49293e-11
8.49294e-11
8.49295e-11
8.49297e-11
8.49299e-11
8.49299e-11
8.49301e-11
8.49303e-11
8.49304e-11
8.49305e-11
8.49307e-11
8.49308e-11
8.49309e-11
8.49311e-11
8.49313e-11
8.49314e-11
8.49316e-11
8.49316e-11
8.49319e-11
8.4932e-11
8.49321e-11
8.49322e-11
8.49324e-11
8.49326e-11
8.49327e-11
8.49329e-11
8.4933e-11
8.49331e-11
8.49333e-11
8.49334e-11
8.49336e-11
8.49337e-11
8.49339e-11
8.4934e-11
8.49341e-11
8.49343e-11
8.49344e-11
8.49345e-11
8.49347e-11
8.49349e-11
8.4935e-11
8.49351e-11
8.49353e-11
8.49355e-11
8.49356e-11
8.49357e-11
8.49359e-11
8.4936e-11
8.49362e-11
8.49363e-11
8.49365e-11
8.49366e-11
8.49368e-11
8.49369e-11
8.49371e-11
8.49372e-11
8.49373e-11
8.49375e-11
8.49376e-11
8.49378e-11
8.49379e-11
8.49381e-11
8.49382e-11
8.49384e-11
8.49385e-11
8.49387e-11
8.49388e-11
8.49389e-11
8.49391e-11
8.49392e-11
8.49394e-11
8.49395e-11
8.49397e-11
8.49398e-11
8.494e-11
8.49401e-11
8.49403e-11
8.49404e-11
8.49405e-11
8.49407e-11
8.49408e-11
8.49411e-11
8.49412e-11
8.49414e-11
8.49415e-11
8.49416e-11
8.49418e-11
8.49419e-11
8.49421e-11
8.49423e-11
8.49425e-11
8.49426e-11
8.49428e-11
8.49429e-11
8.4943e-11
8.49432e-11
8.49434e-11
8.49435e-11
8.49436e-11
8.49438e-11
8.49439e-11
8.4944e-11
8.49442e-11
8.49444e-11
8.49446e-11
8.49448e-11
8.49449e-11
8.4945e-11
8.49452e-11
8.49453e-11
8.49455e-11
8.49456e-11
8.49458e-11
8.49459e-11
8.4946e-11
8.49462e-11
8.49464e-11
8.49465e-11
8.49466e-11
8.49468e-11
8.4947e-11
8.49471e-11
8.49473e-11
8.49474e-11
8.49476e-11
8.49478e-11
8.49479e-11
8.49481e-11
8.49483e-11
8.49484e-11
8.49486e-11
8.49487e-11
8.49489e-11
8.49491e-11
8.49493e-11
8.49494e-11
8.49495e-11
8.49497e-11
8.49498e-11
8.495e-11
8.49501e-11
8.49503e-11
8.49504e-11
8.49506e-11
8.49507e-11
8.49509e-11
8.49511e-11
8.49512e-11
8.49514e-11
8.49516e-11
8.49517e-11
8.49518e-11
8.4952e-11
8.49522e-11
8.49523e-11
8.49525e-11
8.49526e-11
8.49528e-11
8.4953e-11
8.49531e-11
8.49533e-11
8.49534e-11
8.49535e-11
8.49537e-11
8.49539e-11
8.4954e-11
8.49543e-11
8.49544e-11
8.49545e-11
8.49547e-11
8.49548e-11
8.4955e-11
8.49552e-11
8.49553e-11
8.49555e-11
8.49556e-11
8.49558e-11
8.4956e-11
8.49561e-11
8.49563e-11
8.49564e-11
8.49566e-11
8.49567e-11
8.49569e-11
8.49571e-11
8.49572e-11
8.49574e-11
8.49575e-11
8.49577e-11
8.49579e-11
8.4958e-11
8.49582e-11
8.49583e-11
8.49585e-11
8.49587e-11
8.49588e-11
8.4959e-11
8.49591e-11
8.49593e-11
8.49594e-11
8.49596e-11
8.49597e-11
8.496e-11
8.49602e-11
8.49603e-11
8.49605e-11
8.49607e-11
8.49608e-11
8.4961e-11
8.49611e-11
8.49613e-11
8.49614e-11
8.49616e-11
8.49618e-11
8.49619e-11
8.49621e-11
8.49622e-11
8.49624e-11
8.49625e-11
8.49626e-11
8.49628e-11
8.4963e-11
8.49631e-11
8.49633e-11
8.49635e-11
8.49637e-11
8.49639e-11
8.4964e-11
8.49642e-11
8.49643e-11
8.49645e-11
8.49647e-11
8.49648e-11
8.4965e-11
8.49651e-11
8.49653e-11
8.49654e-11
8.49656e-11
8.49658e-11
8.49659e-11
8.49661e-11
8.49662e-11
8.49664e-11
8.49667e-11
8.49668e-11
8.4967e-11
8.49671e-11
8.49672e-11
8.49674e-11
8.49676e-11
8.49677e-11
8.49679e-11
8.4968e-11
8.49682e-11
8.49684e-11
8.49685e-11
8.49687e-11
8.49689e-11
8.4969e-11
8.49692e-11
8.49694e-11
8.49695e-11
8.49696e-11
8.49699e-11
8.497e-11
8.49702e-11
8.49703e-11
8.49705e-11
8.49707e-11
8.49708e-11
8.4971e-11
8.49712e-11
8.49713e-11
8.49715e-11
8.49717e-11
8.49718e-11
8.4972e-11
8.49721e-11
8.49723e-11
8.49724e-11
8.49726e-11
8.49727e-11
8.4973e-11
8.49732e-11
8.49733e-11
8.49735e-11
8.49736e-11
8.49738e-11
8.4974e-11
8.49741e-11
8.49743e-11
8.49745e-11
8.49747e-11
8.49748e-11
8.4975e-11
8.49751e-11
8.49753e-11
8.49755e-11
8.49757e-11
8.49758e-11
8.49759e-11
8.49761e-11
8.49763e-11
8.49764e-11
8.49766e-11
8.49768e-11
8.49769e-11
8.49771e-11
8.49772e-11
8.49774e-11
8.49776e-11
8.49779e-11
8.4978e-11
8.49782e-11
8.49783e-11
8.49785e-11
8.49787e-11
8.49789e-11
8.4979e-11
8.49792e-11
8.49793e-11
8.49794e-11
8.49796e-11
8.49798e-11
8.498e-11
8.49801e-11
8.49803e-11
8.49805e-11
8.49806e-11
8.49807e-11
8.4981e-11
8.49811e-11
8.49812e-11
8.49814e-11
8.49816e-11
8.49818e-11
8.49819e-11
8.49821e-11
8.49822e-11
8.49824e-11
8.49826e-11
8.49827e-11
8.49829e-11
8.49832e-11
8.49833e-11
8.49835e-11
8.49837e-11
8.49838e-11
8.4984e-11
8.49842e-11
8.49843e-11
8.49845e-11
8.49847e-11
8.49848e-11
8.4985e-11
8.49853e-11
8.49854e-11
8.49856e-11
8.49857e-11
8.4986e-11
8.49861e-11
8.49863e-11
8.49865e-11
8.49866e-11
8.49868e-11
8.4987e-11
8.49871e-11
8.49873e-11
8.49874e-11
8.49876e-11
8.49877e-11
8.49879e-11
8.49881e-11
8.49882e-11
8.49884e-11
8.49886e-11
8.49887e-11
8.49889e-11
8.49891e-11
8.49893e-11
8.49894e-11
8.49896e-11
8.49897e-11
8.49898e-11
8.49901e-11
8.49902e-11
8.49904e-11
8.49907e-11
8.49909e-11
8.49911e-11
8.49912e-11
8.49914e-11
8.49915e-11
8.49917e-11
8.49919e-11
8.4992e-11
8.49922e-11
8.49923e-11
8.49925e-11
8.49927e-11
8.49928e-11
8.4993e-11
8.49933e-11
8.49934e-11
8.49936e-11
8.49937e-11
8.49939e-11
8.49941e-11
8.49943e-11
8.49945e-11
8.49947e-11
8.49948e-11
8.4995e-11
8.49952e-11
8.49954e-11
8.49955e-11
8.49957e-11
8.49959e-11
8.4996e-11
8.49962e-11
8.49964e-11
8.49965e-11
8.49967e-11
8.49969e-11
8.49971e-11
8.49972e-11
8.49974e-11
8.49975e-11
8.49977e-11
8.49979e-11
8.49981e-11
8.49983e-11
8.49984e-11
8.49986e-11
8.49988e-11
8.4999e-11
8.49992e-11
8.49993e-11
8.49996e-11
8.49997e-11
8.49999e-11
8.5e-11
8.50002e-11
8.50004e-11
8.50006e-11
8.50008e-11
8.5001e-11
8.50011e-11
8.50013e-11
8.50014e-11
8.50016e-11
8.50017e-11
8.5002e-11
8.50022e-11
8.50023e-11
8.50026e-11
8.50027e-11
8.50029e-11
8.50031e-11
8.50033e-11
8.50034e-11
8.50036e-11
8.50037e-11
8.5004e-11
8.50041e-11
8.50043e-11
8.50045e-11
8.50046e-11
8.50048e-11
8.50051e-11
8.50052e-11
8.50054e-11
8.50056e-11
8.50057e-11
8.5006e-11
8.50061e-11
8.50063e-11
8.50064e-11
8.50066e-11
8.50068e-11
8.5007e-11
8.50072e-11
8.50074e-11
8.50076e-11
8.50077e-11
8.50079e-11
8.50081e-11
8.50083e-11
8.50084e-11
8.50086e-11
8.50088e-11
8.5009e-11
8.50091e-11
8.50094e-11
8.50095e-11
8.50096e-11
8.50099e-11
8.50101e-11
8.50102e-11
8.50104e-11
8.50106e-11
8.50108e-11
8.5011e-11
8.50112e-11
8.50114e-11
8.50116e-11
)
;

boundaryField
{
    fixedWall
    {
        type            zeroGradient;
    }
    outlet
    {
        type            inletOutlet;
        inletValue      uniform 0;
        value           uniform 8.50116e-11;
    }
    defaultFaces
    {
        type            empty;
    }
}


// ************************************************************************* //
