/*--------------------------------*- C++ -*----------------------------------*\
| =========                 |                                                 |
| \\      /  F ield         | OpenFOAM: The Open Source CFD Toolbox           |
|  \\    /   O peration     | Version:  2406                                  |
|   \\  /    A nd           | Website:  www.openfoam.com                      |
|    \\/     M anipulation  |                                                 |
\*---------------------------------------------------------------------------*/
FoamFile
{
    version     2.0;
    format      ascii;
    arch        "LSB;label=32;scalar=64";
    class       volScalarField;
    location    "2.1";
    object      O2;
}
// * * * * * * * * * * * * * * * * * * * * * * * * * * * * * * * * * * * * * //

dimensions      [0 0 0 0 0 0 0];

internalField   nonuniform List<scalar> 
1000
(
1.72114e-06
1.71933e-06
1.71616e-06
1.7118e-06
1.70629e-06
1.69964e-06
1.69182e-06
1.68282e-06
1.67261e-06
1.66117e-06
1.64851e-06
1.63462e-06
1.61952e-06
1.60326e-06
1.58589e-06
1.56749e-06
1.54814e-06
1.52796e-06
1.50707e-06
1.48562e-06
1.46374e-06
1.44158e-06
1.41931e-06
1.39708e-06
1.37503e-06
1.3533e-06
1.33204e-06
1.31135e-06
1.29134e-06
1.27212e-06
1.25375e-06
1.23631e-06
1.21984e-06
1.20439e-06
1.18998e-06
1.17662e-06
1.16432e-06
1.15307e-06
1.14286e-06
1.13366e-06
1.12546e-06
1.11822e-06
1.11191e-06
1.10649e-06
1.10191e-06
1.09813e-06
1.09512e-06
1.09283e-06
1.09121e-06
1.09023e-06
1.08984e-06
1.08999e-06
1.09065e-06
1.09178e-06
1.09335e-06
1.09531e-06
1.09764e-06
1.10031e-06
1.10328e-06
1.10653e-06
1.11004e-06
1.11377e-06
1.11771e-06
1.12183e-06
1.12613e-06
1.13057e-06
1.13516e-06
1.13986e-06
1.14468e-06
1.14959e-06
1.15459e-06
1.15967e-06
1.16482e-06
1.17004e-06
1.17531e-06
1.18064e-06
1.18599e-06
1.19136e-06
1.19685e-06
1.20238e-06
1.20794e-06
1.21353e-06
1.21917e-06
1.22483e-06
1.23053e-06
1.23627e-06
1.24204e-06
1.24785e-06
1.2537e-06
1.25958e-06
1.26551e-06
1.27147e-06
1.27747e-06
1.28352e-06
1.28961e-06
1.29574e-06
1.30192e-06
1.30815e-06
1.31442e-06
1.32074e-06
1.32711e-06
1.33354e-06
1.34001e-06
1.34654e-06
1.35312e-06
1.35976e-06
1.36645e-06
1.3732e-06
1.38e-06
1.38687e-06
1.39379e-06
1.40077e-06
1.40782e-06
1.41492e-06
1.42209e-06
1.42931e-06
1.43661e-06
1.44396e-06
1.45139e-06
1.45888e-06
1.46643e-06
1.47406e-06
1.48175e-06
1.48952e-06
1.49735e-06
1.50526e-06
1.51325e-06
1.52131e-06
1.52945e-06
1.53767e-06
1.54597e-06
1.55431e-06
1.56267e-06
1.57123e-06
1.57988e-06
1.58863e-06
1.59747e-06
1.6064e-06
1.61542e-06
1.62455e-06
1.63378e-06
1.6431e-06
1.65254e-06
1.66208e-06
1.67173e-06
1.6815e-06
1.69138e-06
1.70137e-06
1.71149e-06
1.72172e-06
1.73208e-06
1.74257e-06
1.75318e-06
1.76392e-06
1.7748e-06
1.78581e-06
1.79695e-06
1.80824e-06
1.81966e-06
1.83123e-06
1.84291e-06
1.85462e-06
1.86665e-06
1.87883e-06
1.89116e-06
1.90366e-06
1.91631e-06
1.92912e-06
1.94209e-06
1.95524e-06
1.96855e-06
1.98203e-06
1.99569e-06
2.00954e-06
2.02356e-06
2.03778e-06
2.05219e-06
2.0668e-06
2.08161e-06
2.09662e-06
2.11186e-06
2.1273e-06
2.14298e-06
2.15888e-06
2.17502e-06
2.19141e-06
2.20804e-06
2.22493e-06
2.24208e-06
2.25949e-06
2.27719e-06
2.29516e-06
2.31342e-06
2.33198e-06
2.35084e-06
2.37001e-06
2.3895e-06
2.40931e-06
2.42945e-06
2.44993e-06
2.47075e-06
2.49193e-06
2.51347e-06
2.53539e-06
2.55768e-06
2.58036e-06
2.60344e-06
2.62692e-06
2.65083e-06
2.67516e-06
2.69993e-06
2.72516e-06
2.75085e-06
2.77702e-06
2.80367e-06
2.83084e-06
2.85852e-06
2.88675e-06
2.91552e-06
2.94487e-06
2.9748e-06
3.00534e-06
3.0365e-06
3.06831e-06
3.10079e-06
3.13395e-06
3.16782e-06
3.20243e-06
3.23779e-06
3.27394e-06
3.31089e-06
3.34868e-06
3.38733e-06
3.42687e-06
3.46733e-06
3.50875e-06
3.55115e-06
3.59457e-06
3.63904e-06
3.68461e-06
3.7313e-06
3.77916e-06
3.82822e-06
3.87854e-06
3.93015e-06
3.9831e-06
4.03744e-06
4.09323e-06
4.1505e-06
4.20932e-06
4.26913e-06
4.33044e-06
4.39433e-06
4.46006e-06
4.52772e-06
4.5974e-06
4.66921e-06
4.74327e-06
4.81972e-06
4.8987e-06
4.97994e-06
5.06313e-06
5.15021e-06
5.24039e-06
5.33387e-06
5.43086e-06
5.53154e-06
5.63613e-06
5.74485e-06
5.85792e-06
5.97559e-06
6.0981e-06
6.2257e-06
6.35867e-06
6.49729e-06
6.64186e-06
6.79272e-06
6.95022e-06
7.11475e-06
7.28677e-06
7.46677e-06
7.65528e-06
7.8513e-06
8.05617e-06
8.27437e-06
8.50426e-06
8.74689e-06
9.00352e-06
9.27557e-06
9.56463e-06
9.87244e-06
1.02009e-05
1.05523e-05
1.09286e-05
1.13285e-05
1.17575e-05
1.22257e-05
1.27311e-05
1.32777e-05
1.38703e-05
1.45147e-05
1.52174e-05
1.59868e-05
1.68325e-05
1.77665e-05
1.88033e-05
1.99609e-05
2.12612e-05
2.27319e-05
2.44084e-05
2.63317e-05
2.85603e-05
3.11835e-05
3.43076e-05
3.81002e-05
4.281e-05
4.88105e-05
5.66657e-05
6.7251e-05
8.20168e-05
0.000103632
0.000137573
0.00019599
0.000307793
0.000551141
0.00118369
0.00313472
0.0100556
0.0484363
0.0751762
0.0889863
0.096015
0.0995639
0.101348
0.102242
0.10269
0.102915
0.103027
0.103083
0.103111
0.103125
0.103132
0.103135
0.103137
0.103138
0.103139
0.103139
0.103139
0.103139
0.103139
0.103139
0.103139
0.103139
0.103139
0.103139
0.103139
0.103139
0.103139
0.103139
0.103139
0.103139
0.103139
0.103139
0.103139
0.103139
0.103139
0.103139
0.103139
0.103139
0.103139
0.103139
0.103139
0.103139
0.103139
0.103139
0.103139
0.103139
0.103139
0.103139
0.103139
0.103139
0.103139
0.103139
0.103139
0.103139
0.103139
0.103139
0.103139
0.103139
0.103139
0.103139
0.103139
0.103139
0.103139
0.103139
0.103139
0.103139
0.103139
0.103139
0.103139
0.103139
0.103139
0.103139
0.103139
0.103139
0.103139
0.103139
0.103139
0.103139
0.103139
0.103139
0.103139
0.103139
0.103139
0.103139
0.103139
0.103139
0.103139
0.103139
0.103139
0.103139
0.103139
0.103139
0.103139
0.103139
0.103139
0.103139
0.103139
0.103139
0.103139
0.103139
0.103139
0.103139
0.103139
0.103139
0.103139
0.103139
0.103139
0.103139
0.103139
0.103139
0.103139
0.103139
0.103139
0.103139
0.103139
0.103139
0.103139
0.103139
0.103139
0.103139
0.103139
0.103139
0.103139
0.103139
0.103139
0.103139
0.103139
0.103139
0.103139
0.103139
0.103139
0.103139
0.103139
0.103139
0.103139
0.103139
0.103139
0.103139
0.103139
0.103139
0.103139
0.103139
0.103139
0.103139
0.103139
0.103139
0.103139
0.103139
0.103139
0.103139
0.103139
0.103139
0.103139
0.103139
0.103139
0.103139
0.103139
0.103139
0.103139
0.103139
0.103139
0.103139
0.103139
0.103139
0.103139
0.103139
0.103139
0.103139
0.103139
0.103139
0.103139
0.103139
0.103139
0.103139
0.103139
0.103139
0.103139
0.103139
0.103139
0.103139
0.103139
0.103139
0.103139
0.103139
0.103139
0.103139
0.103139
0.103139
0.103139
0.103139
0.103139
0.103139
0.103139
0.103139
0.103139
0.103139
0.103139
0.103139
0.103139
0.103139
0.103139
0.103139
0.103139
0.103139
0.103139
0.103139
0.103139
0.103139
0.103139
0.103139
0.103139
0.103139
0.103139
0.103139
0.103139
0.103139
0.103139
0.103139
0.103139
0.103139
0.103139
0.103139
0.103139
0.103139
0.103139
0.103139
0.103139
0.103139
0.103139
0.103139
0.103139
0.103139
0.103139
0.103139
0.103139
0.103139
0.103139
0.103139
0.103139
0.103139
0.103139
0.103139
0.103139
0.103139
0.103139
0.103139
0.103139
0.103139
0.103139
0.103139
0.103139
0.103139
0.103139
0.103139
0.103139
0.103139
0.103139
0.103139
0.103139
0.103139
0.103139
0.103139
0.103139
0.103139
0.103139
0.103139
0.103139
0.103139
0.103139
0.103139
0.103139
0.103139
0.103139
0.103139
0.103139
0.103139
0.103139
0.103139
0.103139
0.103139
0.103139
0.103139
0.103139
0.103139
0.103139
0.103139
0.103139
0.103139
0.103139
0.103139
0.103139
0.103139
0.103139
0.103139
0.103139
0.103139
0.103139
0.103139
0.103139
0.103139
0.103139
0.103139
0.103139
0.103139
0.103139
0.103139
0.103139
0.103139
0.103139
0.103139
0.103139
0.103139
0.103139
0.103139
0.103139
0.103139
0.103139
0.103139
0.103139
0.103139
0.103139
0.103139
0.103139
0.103139
0.103139
0.103139
0.103139
0.103139
0.103139
0.103139
0.103139
0.103139
0.103139
0.103139
0.103139
0.103139
0.103139
0.103139
0.103139
0.103139
0.103139
0.103139
0.103139
0.103139
0.103139
0.103139
0.103139
0.103139
0.103139
0.103139
0.103139
0.103139
0.103139
0.103139
0.103139
0.103139
0.103139
0.103139
0.103139
0.103139
0.103139
0.103139
0.103139
0.103139
0.103139
0.103139
0.103139
0.103139
0.103139
0.103139
0.103139
0.103139
0.103139
0.103139
0.103139
0.103139
0.103139
0.103139
0.103139
0.103139
0.103139
0.103139
0.103139
0.103139
0.103139
0.103139
0.103139
0.103139
0.103139
0.103139
0.103139
0.103139
0.103139
0.103139
0.103139
0.103139
0.103139
0.103139
0.103139
0.103139
0.103139
0.103139
0.103139
0.103139
0.103139
0.103139
0.103139
0.103139
0.103139
0.103139
0.103139
0.103139
0.103139
0.103139
0.103139
0.103139
0.103139
0.103139
0.103139
0.103139
0.103139
0.103139
0.103139
0.103139
0.103139
0.103139
0.103139
0.103139
0.103139
0.103139
0.103139
0.103139
0.103139
0.103139
0.103139
0.103139
0.103139
0.103139
0.103139
0.103139
0.103139
0.103139
0.103139
0.103139
0.103139
0.103139
0.103139
0.103139
0.103139
0.103139
0.103139
0.103139
0.103139
0.103139
0.103139
0.103139
0.103139
0.103139
0.103139
0.103139
0.103139
0.103139
0.103139
0.103139
0.103139
0.103139
0.103139
0.103139
0.103139
0.103139
0.103139
0.103139
0.103139
0.103139
0.103139
0.103139
0.103139
0.103139
0.103139
0.103139
0.103139
0.103139
0.103139
0.103139
0.103139
0.103139
0.103139
0.103139
0.103139
0.103139
0.103139
0.103139
0.103139
0.103139
0.103139
0.103139
0.103139
0.103139
0.103139
0.103139
0.103139
0.103139
0.103139
0.103139
0.103139
0.103139
0.103139
0.103139
0.103139
0.103139
0.103139
0.103139
0.103139
0.103139
0.103139
0.103139
0.103139
0.103139
0.103139
0.103139
0.103139
0.103139
0.103139
0.103139
0.103139
0.103139
0.103139
0.103139
0.103139
0.103139
0.103139
0.103139
0.103139
0.103139
0.103139
0.103139
0.103139
0.103139
0.103139
0.103139
0.103139
0.103139
0.103139
0.103139
0.103139
0.103139
0.103139
0.103139
0.103139
0.103139
0.103139
0.103139
0.103139
0.103139
0.103139
0.103139
0.103139
0.103139
0.103139
0.103139
0.103139
0.103139
0.103139
0.103139
0.103139
0.103139
0.103139
0.103139
0.103139
0.103139
0.103139
0.103139
0.103139
0.103139
0.103139
0.103139
0.103139
0.103139
0.103139
0.103139
0.103139
0.103139
0.103139
0.103139
0.103139
0.103139
0.103139
0.103139
0.103139
0.103139
0.103139
0.103139
0.103139
0.103139
0.103139
0.103139
0.103139
0.103139
0.103139
0.103139
0.103139
0.103139
0.103139
0.103139
0.103139
0.103139
0.103139
0.103139
0.103139
0.103139
0.103139
0.103139
0.103139
0.103139
0.103139
0.103139
0.103139
0.103139
0.103139
0.103139
0.103139
0.103139
0.103139
0.103139
0.103139
0.103139
0.103139
0.103139
0.103139
0.103139
0.103139
0.103139
0.103139
0.103139
0.103139
0.103139
0.103139
0.103139
0.103139
0.103139
0.103139
0.103139
0.103139
0.103139
0.103139
0.103139
0.103139
0.103139
0.103139
0.103139
0.103139
0.103139
0.103139
0.103139
0.103139
0.103139
0.103139
0.103139
0.103139
0.103139
0.103139
0.103139
0.103139
0.103139
0.103139
0.103139
0.103139
0.103139
0.103139
)
;

boundaryField
{
    fixedWall
    {
        type            zeroGradient;
    }
    outlet
    {
        type            inletOutlet;
        inletValue      uniform 0;
        value           uniform 0.103139;
    }
    defaultFaces
    {
        type            empty;
    }
}


// ************************************************************************* //
