/*--------------------------------*- C++ -*----------------------------------*\
| =========                 |                                                 |
| \\      /  F ield         | OpenFOAM: The Open Source CFD Toolbox           |
|  \\    /   O peration     | Version:  2406                                  |
|   \\  /    A nd           | Website:  www.openfoam.com                      |
|    \\/     M anipulation  |                                                 |
\*---------------------------------------------------------------------------*/
FoamFile
{
    version     2.0;
    format      ascii;
    arch        "LSB;label=32;scalar=64";
    class       volVectorField;
    location    "2.1";
    object      U;
}
// * * * * * * * * * * * * * * * * * * * * * * * * * * * * * * * * * * * * * //

dimensions      [0 1 -1 0 0 0 0];

internalField   nonuniform List<vector> 
1000
(
(-1.33492e-05 0 0)
(-5.69583e-05 0 0)
(-0.00013307 0 0)
(-0.000228149 0 0)
(-0.00033517 0 0)
(-0.000450381 0 0)
(-0.000571384 0 0)
(-0.000696375 0 0)
(-0.000823949 0 0)
(-0.000953007 0 0)
(-0.00108267 0 0)
(-0.00121224 0 0)
(-0.00134112 0 0)
(-0.00146882 0 0)
(-0.00159493 0 0)
(-0.00171909 0 0)
(-0.00184101 0 0)
(-0.00196044 0 0)
(-0.00207716 0 0)
(-0.00219098 0 0)
(-0.00230175 0 0)
(-0.00240935 0 0)
(-0.00251368 0 0)
(-0.00261464 0 0)
(-0.00271217 0 0)
(-0.00280624 0 0)
(-0.00289681 0 0)
(-0.00298386 0 0)
(-0.0030674 0 0)
(-0.00314743 0 0)
(-0.00322398 0 0)
(-0.00329707 0 0)
(-0.00336676 0 0)
(-0.00343309 0 0)
(-0.00349612 0 0)
(-0.00355592 0 0)
(-0.00361256 0 0)
(-0.00366611 0 0)
(-0.00371666 0 0)
(-0.00376429 0 0)
(-0.0038091 0 0)
(-0.00385118 0 0)
(-0.00389062 0 0)
(-0.00392752 0 0)
(-0.00396197 0 0)
(-0.00399409 0 0)
(-0.00402397 0 0)
(-0.00405172 0 0)
(-0.00407745 0 0)
(-0.00410119 0 0)
(-0.004123 0 0)
(-0.00414309 0 0)
(-0.00416162 0 0)
(-0.00417863 0 0)
(-0.00419419 0 0)
(-0.00420838 0 0)
(-0.00422128 0 0)
(-0.00423297 0 0)
(-0.00424355 0 0)
(-0.00425307 0 0)
(-0.00426162 0 0)
(-0.00426926 0 0)
(-0.00427607 0 0)
(-0.00428211 0 0)
(-0.00428744 0 0)
(-0.00429212 0 0)
(-0.00429618 0 0)
(-0.00429978 0 0)
(-0.00430277 0 0)
(-0.00430531 0 0)
(-0.00430751 0 0)
(-0.00430932 0 0)
(-0.00431082 0 0)
(-0.00431195 0 0)
(-0.00431284 0 0)
(-0.0043135 0 0)
(-0.00431394 0 0)
(-0.00431419 0 0)
(-0.00431427 0 0)
(-0.0043142 0 0)
(-0.004314 0 0)
(-0.00431369 0 0)
(-0.00431328 0 0)
(-0.00431278 0 0)
(-0.00431221 0 0)
(-0.00431158 0 0)
(-0.0043109 0 0)
(-0.00431017 0 0)
(-0.0043094 0 0)
(-0.00430861 0 0)
(-0.00430778 0 0)
(-0.00430694 0 0)
(-0.00430608 0 0)
(-0.00430521 0 0)
(-0.00430433 0 0)
(-0.00430344 0 0)
(-0.00430255 0 0)
(-0.00430166 0 0)
(-0.00430076 0 0)
(-0.00429986 0 0)
(-0.00429897 0 0)
(-0.00429807 0 0)
(-0.00429718 0 0)
(-0.00429629 0 0)
(-0.0042954 0 0)
(-0.00429452 0 0)
(-0.00429363 0 0)
(-0.00429275 0 0)
(-0.00429187 0 0)
(-0.004291 0 0)
(-0.00429013 0 0)
(-0.00428926 0 0)
(-0.00428839 0 0)
(-0.00428752 0 0)
(-0.00428666 0 0)
(-0.0042858 0 0)
(-0.00428494 0 0)
(-0.00428408 0 0)
(-0.00428322 0 0)
(-0.00428237 0 0)
(-0.00428152 0 0)
(-0.00428067 0 0)
(-0.00427982 0 0)
(-0.00427898 0 0)
(-0.00427813 0 0)
(-0.00427729 0 0)
(-0.00427646 0 0)
(-0.00427563 0 0)
(-0.0042748 0 0)
(-0.00427397 0 0)
(-0.00427315 0 0)
(-0.00427233 0 0)
(-0.00427151 0 0)
(-0.0042707 0 0)
(-0.0042699 0 0)
(-0.0042691 0 0)
(-0.0042683 0 0)
(-0.00426751 0 0)
(-0.00426672 0 0)
(-0.00426593 0 0)
(-0.00426516 0 0)
(-0.00426438 0 0)
(-0.00426361 0 0)
(-0.00426284 0 0)
(-0.00426208 0 0)
(-0.00426132 0 0)
(-0.00426056 0 0)
(-0.00425981 0 0)
(-0.00425906 0 0)
(-0.00425831 0 0)
(-0.00425756 0 0)
(-0.00425682 0 0)
(-0.00425608 0 0)
(-0.00425533 0 0)
(-0.00425459 0 0)
(-0.00425385 0 0)
(-0.00425311 0 0)
(-0.00425237 0 0)
(-0.00425163 0 0)
(-0.00425089 0 0)
(-0.00425014 0 0)
(-0.0042494 0 0)
(-0.00424865 0 0)
(-0.00424791 0 0)
(-0.00424716 0 0)
(-0.00424641 0 0)
(-0.00424566 0 0)
(-0.00424491 0 0)
(-0.00424415 0 0)
(-0.0042434 0 0)
(-0.00424264 0 0)
(-0.00424189 0 0)
(-0.00424113 0 0)
(-0.00424037 0 0)
(-0.00423962 0 0)
(-0.00423886 0 0)
(-0.0042381 0 0)
(-0.00423735 0 0)
(-0.00423659 0 0)
(-0.00423584 0 0)
(-0.00423509 0 0)
(-0.00423433 0 0)
(-0.00423359 0 0)
(-0.00423284 0 0)
(-0.00423209 0 0)
(-0.00423135 0 0)
(-0.00423061 0 0)
(-0.00422987 0 0)
(-0.00422913 0 0)
(-0.00422839 0 0)
(-0.00422765 0 0)
(-0.00422692 0 0)
(-0.00422619 0 0)
(-0.00422545 0 0)
(-0.00422472 0 0)
(-0.00422399 0 0)
(-0.00422325 0 0)
(-0.00422252 0 0)
(-0.00422179 0 0)
(-0.00422105 0 0)
(-0.00422032 0 0)
(-0.00421958 0 0)
(-0.00421884 0 0)
(-0.0042181 0 0)
(-0.00421736 0 0)
(-0.00421662 0 0)
(-0.00421587 0 0)
(-0.00421513 0 0)
(-0.00421438 0 0)
(-0.00421363 0 0)
(-0.00421288 0 0)
(-0.00421213 0 0)
(-0.00421138 0 0)
(-0.00421063 0 0)
(-0.00420988 0 0)
(-0.00420913 0 0)
(-0.00420838 0 0)
(-0.00420763 0 0)
(-0.00420688 0 0)
(-0.00420613 0 0)
(-0.00420538 0 0)
(-0.00420463 0 0)
(-0.00420389 0 0)
(-0.00420314 0 0)
(-0.0042024 0 0)
(-0.00420165 0 0)
(-0.00420091 0 0)
(-0.00420016 0 0)
(-0.00419942 0 0)
(-0.00419867 0 0)
(-0.00419793 0 0)
(-0.00419718 0 0)
(-0.00419642 0 0)
(-0.00419568 0 0)
(-0.00419492 0 0)
(-0.00419416 0 0)
(-0.00419341 0 0)
(-0.00419264 0 0)
(-0.00419187 0 0)
(-0.00419109 0 0)
(-0.0041903 0 0)
(-0.00418953 0 0)
(-0.00418873 0 0)
(-0.00418792 0 0)
(-0.00418712 0 0)
(-0.0041863 0 0)
(-0.0041855 0 0)
(-0.00418466 0 0)
(-0.00418384 0 0)
(-0.00418302 0 0)
(-0.00418218 0 0)
(-0.00418137 0 0)
(-0.00418054 0 0)
(-0.00417973 0 0)
(-0.00417891 0 0)
(-0.00417812 0 0)
(-0.00417733 0 0)
(-0.00417656 0 0)
(-0.00417582 0 0)
(-0.00417508 0 0)
(-0.00417437 0 0)
(-0.00417368 0 0)
(-0.00417301 0 0)
(-0.00417236 0 0)
(-0.00417173 0 0)
(-0.00417111 0 0)
(-0.0041705 0 0)
(-0.00416989 0 0)
(-0.00416928 0 0)
(-0.00416866 0 0)
(-0.00416803 0 0)
(-0.00416736 0 0)
(-0.00416667 0 0)
(-0.00416592 0 0)
(-0.00416514 0 0)
(-0.00416427 0 0)
(-0.00416336 0 0)
(-0.00416239 0 0)
(-0.00416133 0 0)
(-0.00416022 0 0)
(-0.00415905 0 0)
(-0.00415784 0 0)
(-0.00415659 0 0)
(-0.00415531 0 0)
(-0.00415405 0 0)
(-0.00415279 0 0)
(-0.00415159 0 0)
(-0.00415042 0 0)
(-0.00414933 0 0)
(-0.00414833 0 0)
(-0.0041474 0 0)
(-0.00414658 0 0)
(-0.00414583 0 0)
(-0.00414515 0 0)
(-0.00414452 0 0)
(-0.0041439 0 0)
(-0.00414327 0 0)
(-0.00414261 0 0)
(-0.00414183 0 0)
(-0.00414096 0 0)
(-0.00413992 0 0)
(-0.00413871 0 0)
(-0.00413731 0 0)
(-0.00413572 0 0)
(-0.00413388 0 0)
(-0.00413195 0 0)
(-0.00412949 0 0)
(-0.00412745 0 0)
(-0.00412432 0 0)
(-0.00412195 0 0)
(-0.00411879 0 0)
(-0.00411525 0 0)
(-0.00411225 0 0)
(-0.00410801 0 0)
(-0.00410426 0 0)
(-0.00410012 0 0)
(-0.00409599 0 0)
(-0.00409199 0 0)
(-0.00408649 0 0)
(-0.00407591 0 0)
(-0.00405775 0 0)
(-0.00403633 0 0)
(-0.00398794 0 0)
(-0.00400799 0 0)
(-0.00386467 0 0)
(-0.00356957 0 0)
(-0.00170005 0 0)
(0.0119913 0 0)
(0.0401251 0 0)
(0.0672147 0 0)
(0.0843565 0 0)
(0.0935294 0 0)
(0.0981359 0 0)
(0.100327 0 0)
(0.101364 0 0)
(0.101863 0 0)
(0.102123 0 0)
(0.102284 0 0)
(0.102343 0 0)
(0.102403 0 0)
(0.102368 0 0)
(0.102475 0 0)
(0.102408 0 0)
(0.102434 0 0)
(0.102406 0 0)
(0.102442 0 0)
(0.102472 0 0)
(0.102371 0 0)
(0.102478 0 0)
(0.102452 0 0)
(0.102404 0 0)
(0.102444 0 0)
(0.102443 0 0)
(0.102428 0 0)
(0.102467 0 0)
(0.102418 0 0)
(0.102433 0 0)
(0.102458 0 0)
(0.102431 0 0)
(0.102439 0 0)
(0.102453 0 0)
(0.102429 0 0)
(0.102454 0 0)
(0.102423 0 0)
(0.102466 0 0)
(0.102444 0 0)
(0.102446 0 0)
(0.10242 0 0)
(0.102462 0 0)
(0.102482 0 0)
(0.102366 0 0)
(0.10251 0 0)
(0.102467 0 0)
(0.102372 0 0)
(0.102506 0 0)
(0.102467 0 0)
(0.102376 0 0)
(0.102511 0 0)
(0.102464 0 0)
(0.102376 0 0)
(0.102515 0 0)
(0.102469 0 0)
(0.102377 0 0)
(0.102511 0 0)
(0.102473 0 0)
(0.102382 0 0)
(0.10251 0 0)
(0.102457 0 0)
(0.102413 0 0)
(0.1025 0 0)
(0.102438 0 0)
(0.102474 0 0)
(0.102425 0 0)
(0.102436 0 0)
(0.102538 0 0)
(0.102447 0 0)
(0.102426 0 0)
(0.102442 0 0)
(0.102472 0 0)
(0.102481 0 0)
(0.102469 0 0)
(0.102428 0 0)
(0.102486 0 0)
(0.102472 0 0)
(0.102429 0 0)
(0.102499 0 0)
(0.102429 0 0)
(0.102505 0 0)
(0.102466 0 0)
(0.102429 0 0)
(0.102501 0 0)
(0.102437 0 0)
(0.102499 0 0)
(0.102462 0 0)
(0.102471 0 0)
(0.10246 0 0)
(0.102463 0 0)
(0.102496 0 0)
(0.102441 0 0)
(0.102499 0 0)
(0.10248 0 0)
(0.102411 0 0)
(0.102531 0 0)
(0.102484 0 0)
(0.102405 0 0)
(0.102535 0 0)
(0.102484 0 0)
(0.102414 0 0)
(0.102522 0 0)
(0.102475 0 0)
(0.102486 0 0)
(0.102461 0 0)
(0.102442 0 0)
(0.102513 0 0)
(0.10252 0 0)
(0.102456 0 0)
(0.102406 0 0)
(0.102532 0 0)
(0.10251 0 0)
(0.102439 0 0)
(0.102513 0 0)
(0.10245 0 0)
(0.102515 0 0)
(0.102475 0 0)
(0.102492 0 0)
(0.102472 0 0)
(0.102448 0 0)
(0.102559 0 0)
(0.102447 0 0)
(0.102483 0 0)
(0.102485 0 0)
(0.102514 0 0)
(0.102498 0 0)
(0.10242 0 0)
(0.102553 0 0)
(0.1025 0 0)
(0.102413 0 0)
(0.102562 0 0)
(0.10249 0 0)
(0.102452 0 0)
(0.102517 0 0)
(0.102496 0 0)
(0.102493 0 0)
(0.102451 0 0)
(0.102556 0 0)
(0.102484 0 0)
(0.102459 0 0)
(0.102522 0 0)
(0.10249 0 0)
(0.102521 0 0)
(0.102464 0 0)
(0.102508 0 0)
(0.102523 0 0)
(0.102431 0 0)
(0.102568 0 0)
(0.102493 0 0)
(0.102467 0 0)
(0.102531 0 0)
(0.102476 0 0)
(0.102519 0 0)
(0.102522 0 0)
(0.102457 0 0)
(0.102518 0 0)
(0.102543 0 0)
(0.102463 0 0)
(0.102528 0 0)
(0.10251 0 0)
(0.102459 0 0)
(0.102544 0 0)
(0.102536 0 0)
(0.102467 0 0)
(0.102499 0 0)
(0.102536 0 0)
(0.102496 0 0)
(0.102515 0 0)
(0.102505 0 0)
(0.102508 0 0)
(0.102531 0 0)
(0.102473 0 0)
(0.102549 0 0)
(0.102527 0 0)
(0.102435 0 0)
(0.102585 0 0)
(0.102511 0 0)
(0.102481 0 0)
(0.102555 0 0)
(0.102474 0 0)
(0.102553 0 0)
(0.102513 0 0)
(0.10248 0 0)
(0.102545 0 0)
(0.102557 0 0)
(0.102493 0 0)
(0.102463 0 0)
(0.102573 0 0)
(0.102528 0 0)
(0.102499 0 0)
(0.102494 0 0)
(0.102575 0 0)
(0.102523 0 0)
(0.102455 0 0)
(0.102591 0 0)
(0.102524 0 0)
(0.102457 0 0)
(0.102589 0 0)
(0.102517 0 0)
(0.102481 0 0)
(0.102581 0 0)
(0.102505 0 0)
(0.102528 0 0)
(0.102514 0 0)
(0.102509 0 0)
(0.102592 0 0)
(0.102479 0 0)
(0.10254 0 0)
(0.10253 0 0)
(0.102541 0 0)
(0.102522 0 0)
(0.102523 0 0)
(0.102538 0 0)
(0.102541 0 0)
(0.102533 0 0)
(0.102512 0 0)
(0.102555 0 0)
(0.102536 0 0)
(0.102508 0 0)
(0.102574 0 0)
(0.102527 0 0)
(0.102497 0 0)
(0.102581 0 0)
(0.10251 0 0)
(0.102569 0 0)
(0.102527 0 0)
(0.102484 0 0)
(0.102616 0 0)
(0.102524 0 0)
(0.1025 0 0)
(0.102575 0 0)
(0.102541 0 0)
(0.102523 0 0)
(0.102554 0 0)
(0.102542 0 0)
(0.102545 0 0)
(0.102544 0 0)
(0.102516 0 0)
(0.102586 0 0)
(0.102529 0 0)
(0.102549 0 0)
(0.102531 0 0)
(0.102538 0 0)
(0.102584 0 0)
(0.102487 0 0)
(0.102613 0 0)
(0.102528 0 0)
(0.102517 0 0)
(0.102573 0 0)
(0.102572 0 0)
(0.102525 0 0)
(0.102535 0 0)
(0.102564 0 0)
(0.10257 0 0)
(0.102557 0 0)
(0.102491 0 0)
(0.102608 0 0)
(0.102538 0 0)
(0.102561 0 0)
(0.102548 0 0)
(0.102564 0 0)
(0.102558 0 0)
(0.102523 0 0)
(0.102571 0 0)
(0.102566 0 0)
(0.102557 0 0)
(0.102567 0 0)
(0.102522 0 0)
(0.102582 0 0)
(0.102575 0 0)
(0.102506 0 0)
(0.102626 0 0)
(0.102528 0 0)
(0.102536 0 0)
(0.102592 0 0)
(0.102576 0 0)
(0.102526 0 0)
(0.102548 0 0)
(0.102637 0 0)
(0.102528 0 0)
(0.102507 0 0)
(0.10261 0 0)
(0.102581 0 0)
(0.102516 0 0)
(0.102606 0 0)
(0.102545 0 0)
(0.102589 0 0)
(0.102568 0 0)
(0.102514 0 0)
(0.102585 0 0)
(0.10261 0 0)
(0.102537 0 0)
(0.102558 0 0)
(0.102614 0 0)
(0.10253 0 0)
(0.102567 0 0)
(0.102598 0 0)
(0.102539 0 0)
(0.102599 0 0)
(0.102546 0 0)
(0.102606 0 0)
(0.10257 0 0)
(0.102526 0 0)
(0.102636 0 0)
(0.102543 0 0)
(0.102563 0 0)
(0.102585 0 0)
(0.102599 0 0)
(0.102573 0 0)
(0.102519 0 0)
(0.102647 0 0)
(0.102563 0 0)
(0.102543 0 0)
(0.102612 0 0)
(0.102549 0 0)
(0.102616 0 0)
(0.10257 0 0)
(0.10255 0 0)
(0.102613 0 0)
(0.102567 0 0)
(0.10258 0 0)
(0.102574 0 0)
(0.102596 0 0)
(0.102566 0 0)
(0.102611 0 0)
(0.102567 0 0)
(0.102554 0 0)
(0.102626 0 0)
(0.102553 0 0)
(0.102622 0 0)
(0.102573 0 0)
(0.102548 0 0)
(0.102623 0 0)
(0.102562 0 0)
(0.102623 0 0)
(0.102575 0 0)
(0.102553 0 0)
(0.102625 0 0)
(0.102561 0 0)
(0.102623 0 0)
(0.102581 0 0)
(0.102533 0 0)
(0.10266 0 0)
(0.102581 0 0)
(0.102545 0 0)
(0.102647 0 0)
(0.102565 0 0)
(0.102559 0 0)
(0.10265 0 0)
(0.102573 0 0)
(0.102552 0 0)
(0.102656 0 0)
(0.102573 0 0)
(0.102558 0 0)
(0.102638 0 0)
(0.10259 0 0)
(0.10258 0 0)
(0.102586 0 0)
(0.102626 0 0)
(0.102575 0 0)
(0.102597 0 0)
(0.102597 0 0)
(0.102607 0 0)
(0.102611 0 0)
(0.102564 0 0)
(0.1026 0 0)
(0.102622 0 0)
(0.102601 0 0)
(0.102623 0 0)
(0.10255 0 0)
(0.1026 0 0)
(0.102621 0 0)
(0.102593 0 0)
(0.102605 0 0)
(0.102588 0 0)
(0.102635 0 0)
(0.102579 0 0)
(0.1026 0 0)
(0.102617 0 0)
(0.102596 0 0)
(0.1026 0 0)
(0.102611 0 0)
(0.102626 0 0)
(0.102562 0 0)
(0.10262 0 0)
(0.102617 0 0)
(0.102617 0 0)
(0.10257 0 0)
(0.102618 0 0)
(0.102638 0 0)
(0.102555 0 0)
(0.10266 0 0)
(0.102574 0 0)
(0.102627 0 0)
(0.102608 0 0)
(0.102586 0 0)
(0.10263 0 0)
(0.10263 0 0)
(0.102597 0 0)
(0.102563 0 0)
(0.102685 0 0)
(0.10259 0 0)
(0.102575 0 0)
(0.10265 0 0)
(0.102598 0 0)
(0.102618 0 0)
(0.102628 0 0)
(0.102579 0 0)
(0.102638 0 0)
(0.102616 0 0)
(0.102574 0 0)
(0.102681 0 0)
(0.102589 0 0)
(0.10258 0 0)
(0.102671 0 0)
(0.102599 0 0)
(0.102593 0 0)
(0.102611 0 0)
(0.102649 0 0)
(0.102635 0 0)
(0.102572 0 0)
(0.102626 0 0)
(0.102635 0 0)
(0.102605 0 0)
(0.102625 0 0)
(0.102611 0 0)
(0.102644 0 0)
(0.102593 0 0)
(0.102648 0 0)
(0.102603 0 0)
(0.102596 0 0)
(0.102659 0 0)
(0.102612 0 0)
(0.102612 0 0)
(0.102649 0 0)
(0.102584 0 0)
(0.102614 0 0)
(0.102674 0 0)
(0.102587 0 0)
(0.102625 0 0)
(0.102643 0 0)
(0.102602 0 0)
(0.102649 0 0)
(0.102607 0 0)
(0.102625 0 0)
(0.102626 0 0)
(0.102612 0 0)
(0.102665 0 0)
(0.102582 0 0)
(0.102659 0 0)
(0.102633 0 0)
(0.102566 0 0)
(0.102695 0 0)
(0.102618 0 0)
(0.102571 0 0)
(0.102697 0 0)
(0.102616 0 0)
(0.102569 0 0)
(0.102703 0 0)
(0.102623 0 0)
(0.102567 0 0)
(0.102688 0 0)
(0.102609 0 0)
(0.102648 0 0)
(0.102611 0 0)
(0.102609 0 0)
(0.102668 0 0)
(0.102624 0 0)
(0.102644 0 0)
(0.102598 0 0)
(0.102639 0 0)
(0.102668 0 0)
(0.102632 0 0)
(0.102581 0 0)
(0.102653 0 0)
(0.102651 0 0)
(0.102594 0 0)
(0.102672 0 0)
(0.102636 0 0)
(0.102616 0 0)
(0.102639 0 0)
(0.102631 0 0)
(0.102665 0 0)
(0.102615 0 0)
(0.102605 0 0)
(0.102678 0 0)
(0.102607 0 0)
(0.102671 0 0)
(0.102629 0 0)
(0.102591 0 0)
(0.102694 0 0)
(0.102613 0 0)
(0.102637 0 0)
(0.102632 0 0)
(0.102654 0 0)
(0.102647 0 0)
(0.102579 0 0)
(0.10271 0 0)
(0.102628 0 0)
(0.102584 0 0)
(0.102709 0 0)
(0.102623 0 0)
(0.102586 0 0)
(0.102711 0 0)
(0.102625 0 0)
(0.102585 0 0)
(0.102711 0 0)
(0.102627 0 0)
(0.102586 0 0)
(0.102712 0 0)
(0.102626 0 0)
(0.102587 0 0)
(0.102714 0 0)
(0.102629 0 0)
(0.102583 0 0)
(0.102713 0 0)
(0.102632 0 0)
(0.102586 0 0)
(0.102709 0 0)
(0.10263 0 0)
(0.1026 0 0)
(0.102708 0 0)
(0.10261 0 0)
(0.102626 0 0)
(0.10267 0 0)
(0.102662 0 0)
(0.102614 0 0)
(0.102633 0 0)
(0.102697 0 0)
(0.102592 0 0)
(0.102676 0 0)
(0.102642 0 0)
(0.102658 0 0)
(0.102627 0 0)
(0.102621 0 0)
(0.102704 0 0)
(0.102607 0 0)
(0.102658 0 0)
(0.10265 0 0)
(0.102647 0 0)
(0.102634 0 0)
(0.102665 0 0)
(0.102656 0 0)
(0.102602 0 0)
(0.102707 0 0)
(0.102628 0 0)
(0.102611 0 0)
(0.102713 0 0)
(0.102615 0 0)
(0.102626 0 0)
(0.102689 0 0)
(0.10262 0 0)
(0.102679 0 0)
(0.102639 0 0)
(0.102618 0 0)
(0.102702 0 0)
(0.102619 0 0)
(0.102659 0 0)
(0.102642 0 0)
(0.102627 0 0)
(0.102719 0 0)
(0.102596 0 0)
(0.102656 0 0)
(0.102658 0 0)
(0.102651 0 0)
(0.102652 0 0)
(0.102627 0 0)
(0.102676 0 0)
(0.102676 0 0)
(0.10262 0 0)
(0.102647 0 0)
(0.102659 0 0)
(0.102673 0 0)
(0.102642 0 0)
(0.102624 0 0)
(0.102688 0 0)
(0.102644 0 0)
(0.102645 0 0)
(0.102679 0 0)
(0.102625 0 0)
(0.102633 0 0)
(0.102723 0 0)
(0.1026 0 0)
(0.102669 0 0)
(0.102656 0 0)
(0.102631 0 0)
(0.102655 0 0)
(0.102697 0 0)
(0.102639 0 0)
(0.102611 0 0)
(0.10271 0 0)
(0.102629 0 0)
(0.102667 0 0)
(0.102643 0 0)
(0.102653 0 0)
(0.102669 0 0)
(0.102645 0 0)
(0.102659 0 0)
(0.102645 0 0)
(0.102691 0 0)
(0.102629 0 0)
(0.102646 0 0)
(0.102667 0 0)
(0.10266 0 0)
(0.102666 0 0)
(0.102632 0 0)
(0.102662 0 0)
(0.102678 0 0)
(0.102629 0 0)
(0.102693 0 0)
(0.102637 0 0)
(0.102626 0 0)
(0.102683 0 0)
(0.102654 0 0)
(0.102644 0 0)
(0.102705 0 0)
(0.102618 0 0)
(0.102637 0 0)
(0.102685 0 0)
(0.102654 0 0)
(0.10266 0 0)
(0.102647 0 0)
(0.102676 0 0)
(0.102635 0 0)
(0.102654 0 0)
(0.102686 0 0)
(0.102627 0 0)
(0.102669 0 0)
(0.102678 0 0)
(0.102637 0 0)
(0.102651 0 0)
(0.102663 0 0)
(0.102662 0 0)
(0.102672 0 0)
(0.102637 0 0)
(0.10268 0 0)
(0.10264 0 0)
(0.102659 0 0)
(0.102654 0 0)
(0.102638 0 0)
(0.102728 0 0)
(0.102598 0 0)
(0.102673 0 0)
(0.102672 0 0)
(0.102629 0 0)
(0.102666 0 0)
(0.102678 0 0)
(0.102648 0 0)
(0.102671 0 0)
(0.102632 0 0)
(0.102688 0 0)
(0.102657 0 0)
(0.102606 0 0)
(0.102728 0 0)
(0.102644 0 0)
(0.102615 0 0)
(0.10272 0 0)
(0.102633 0 0)
(0.10263 0 0)
(0.102692 0 0)
(0.102646 0 0)
(0.102663 0 0)
(0.102658 0 0)
(0.102657 0 0)
(0.102674 0 0)
(0.102634 0 0)
(0.102677 0 0)
(0.102649 0 0)
(0.102655 0 0)
(0.102662 0 0)
(0.102648 0 0)
(0.102719 0 0)
(0.102623 0 0)
)
;

boundaryField
{
    fixedWall
    {
        type            fixedValue;
        value           uniform (0 0 0);
    }
    outlet
    {
        type            pressureInletOutletVelocity;
        value           uniform (0.102623 0 0);
    }
    defaultFaces
    {
        type            empty;
    }
}


// ************************************************************************* //
