/*--------------------------------*- C++ -*----------------------------------*\
| =========                 |                                                 |
| \\      /  F ield         | OpenFOAM: The Open Source CFD Toolbox           |
|  \\    /   O peration     | Version:  2406                                  |
|   \\  /    A nd           | Website:  www.openfoam.com                      |
|    \\/     M anipulation  |                                                 |
\*---------------------------------------------------------------------------*/
FoamFile
{
    version     2.0;
    format      ascii;
    arch        "LSB;label=32;scalar=64";
    class       volScalarField;
    location    "6.6";
    object      O2;
}
// * * * * * * * * * * * * * * * * * * * * * * * * * * * * * * * * * * * * * //

dimensions      [0 0 0 0 0 0 0];

internalField   nonuniform List<scalar> 
1000
(
1.34615e-06
1.34329e-06
1.33819e-06
1.33126e-06
1.32281e-06
1.31306e-06
1.30217e-06
1.29029e-06
1.27754e-06
1.264e-06
1.24978e-06
1.23493e-06
1.21953e-06
1.20362e-06
1.18727e-06
1.17053e-06
1.15342e-06
1.13601e-06
1.11831e-06
1.10038e-06
1.08224e-06
1.06394e-06
1.04549e-06
1.02693e-06
1.0083e-06
9.89618e-07
9.70917e-07
9.52227e-07
9.33575e-07
9.14988e-07
8.96494e-07
8.78118e-07
8.59886e-07
8.41823e-07
8.23953e-07
8.06297e-07
7.88879e-07
7.71718e-07
7.54833e-07
7.38242e-07
7.21961e-07
7.06006e-07
6.9039e-07
6.75124e-07
6.6022e-07
6.45686e-07
6.3153e-07
6.17757e-07
6.04373e-07
5.91381e-07
5.78783e-07
5.6658e-07
5.54771e-07
5.43356e-07
5.32331e-07
5.21694e-07
5.11441e-07
5.01566e-07
4.92064e-07
4.82929e-07
4.74154e-07
4.65731e-07
4.57654e-07
4.49914e-07
4.42503e-07
4.35411e-07
4.28632e-07
4.22155e-07
4.15971e-07
4.10072e-07
4.04449e-07
3.99092e-07
3.93993e-07
3.89142e-07
3.84531e-07
3.80151e-07
3.75993e-07
3.72049e-07
3.68311e-07
3.64771e-07
3.6142e-07
3.58251e-07
3.55257e-07
3.5243e-07
3.49762e-07
3.47248e-07
3.4488e-07
3.42652e-07
3.40558e-07
3.38592e-07
3.36747e-07
3.35019e-07
3.33401e-07
3.31889e-07
3.30478e-07
3.29162e-07
3.27938e-07
3.268e-07
3.25745e-07
3.24768e-07
3.23865e-07
3.23034e-07
3.22269e-07
3.21568e-07
3.20928e-07
3.20345e-07
3.19816e-07
3.19339e-07
3.18911e-07
3.18528e-07
3.1819e-07
3.17893e-07
3.17635e-07
3.17415e-07
3.17229e-07
3.17076e-07
3.16955e-07
3.16863e-07
3.168e-07
3.16762e-07
3.1675e-07
3.16761e-07
3.16794e-07
3.16847e-07
3.16921e-07
3.17013e-07
3.17123e-07
3.17249e-07
3.1739e-07
3.17546e-07
3.17716e-07
3.17899e-07
3.18095e-07
3.18301e-07
3.18519e-07
3.18746e-07
3.18984e-07
3.1923e-07
3.19485e-07
3.19747e-07
3.20018e-07
3.20295e-07
3.20579e-07
3.20869e-07
3.21166e-07
3.21467e-07
3.21774e-07
3.22086e-07
3.22403e-07
3.22724e-07
3.23049e-07
3.23378e-07
3.23711e-07
3.24047e-07
3.24387e-07
3.2473e-07
3.25076e-07
3.25424e-07
3.25775e-07
3.26129e-07
3.26485e-07
3.26844e-07
3.27205e-07
3.27568e-07
3.27933e-07
3.28299e-07
3.28668e-07
3.29039e-07
3.29411e-07
3.29785e-07
3.3016e-07
3.30537e-07
3.30915e-07
3.31295e-07
3.31677e-07
3.32059e-07
3.32443e-07
3.32829e-07
3.33215e-07
3.33603e-07
3.33992e-07
3.34382e-07
3.34774e-07
3.35166e-07
3.3556e-07
3.35955e-07
3.36349e-07
3.36744e-07
3.37143e-07
3.37542e-07
3.37943e-07
3.38344e-07
3.38747e-07
3.39151e-07
3.39555e-07
3.39961e-07
3.40368e-07
3.40775e-07
3.41184e-07
3.41594e-07
3.42004e-07
3.42416e-07
3.42828e-07
3.43242e-07
3.43657e-07
3.44072e-07
3.44489e-07
3.44906e-07
3.45325e-07
3.45744e-07
3.46165e-07
3.46586e-07
3.47009e-07
3.47432e-07
3.47857e-07
3.48282e-07
3.48709e-07
3.49136e-07
3.49565e-07
3.49994e-07
3.50424e-07
3.50856e-07
3.51288e-07
3.51722e-07
3.52156e-07
3.52591e-07
3.53028e-07
3.53465e-07
3.53903e-07
3.54343e-07
3.54783e-07
3.55224e-07
3.55667e-07
3.5611e-07
3.56554e-07
3.57e-07
3.57446e-07
3.57893e-07
3.58341e-07
3.58791e-07
3.59241e-07
3.59693e-07
3.60145e-07
3.60598e-07
3.61053e-07
3.61508e-07
3.61965e-07
3.62422e-07
3.62881e-07
3.6334e-07
3.63801e-07
3.64262e-07
3.64725e-07
3.65189e-07
3.65653e-07
3.66119e-07
3.66586e-07
3.67054e-07
3.67523e-07
3.67993e-07
3.68464e-07
3.68936e-07
3.69409e-07
3.69884e-07
3.70359e-07
3.70835e-07
3.71313e-07
3.71792e-07
3.72271e-07
3.72752e-07
3.73234e-07
3.73717e-07
3.74201e-07
3.74687e-07
3.75173e-07
3.75661e-07
3.76149e-07
3.76639e-07
3.7713e-07
3.77622e-07
3.78116e-07
3.7861e-07
3.79106e-07
3.79603e-07
3.80101e-07
3.806e-07
3.811e-07
3.81602e-07
3.82104e-07
3.82608e-07
3.83114e-07
3.8362e-07
3.84128e-07
3.84637e-07
3.85147e-07
3.85658e-07
3.86171e-07
3.86685e-07
3.87198e-07
3.87711e-07
3.88229e-07
3.88748e-07
3.89268e-07
3.8979e-07
3.90313e-07
3.90837e-07
3.91363e-07
3.9189e-07
3.92418e-07
3.92947e-07
3.93478e-07
3.9401e-07
3.94544e-07
3.95079e-07
3.95615e-07
3.96152e-07
3.96691e-07
3.97232e-07
3.97773e-07
3.98317e-07
3.98861e-07
3.99407e-07
3.99954e-07
4.00503e-07
4.01053e-07
4.01605e-07
4.02158e-07
4.02712e-07
4.03268e-07
4.03825e-07
4.04384e-07
4.04944e-07
4.05506e-07
4.06069e-07
4.06634e-07
4.072e-07
4.07767e-07
4.08337e-07
4.08907e-07
4.0948e-07
4.10053e-07
4.10629e-07
4.11205e-07
4.11784e-07
4.12364e-07
4.12945e-07
4.13529e-07
4.14113e-07
4.147e-07
4.15288e-07
4.15877e-07
4.16468e-07
4.17061e-07
4.17656e-07
4.18252e-07
4.1885e-07
4.1945e-07
4.20051e-07
4.20654e-07
4.21259e-07
4.21865e-07
4.22474e-07
4.23084e-07
4.23696e-07
4.24309e-07
4.24925e-07
4.25542e-07
4.26161e-07
4.26782e-07
4.27405e-07
4.28029e-07
4.28656e-07
4.29284e-07
4.29915e-07
4.30547e-07
4.31181e-07
4.31817e-07
4.32455e-07
4.33095e-07
4.33737e-07
4.34381e-07
4.35027e-07
4.35675e-07
4.36326e-07
4.36978e-07
4.37632e-07
4.38288e-07
4.38946e-07
4.39607e-07
4.40269e-07
4.40934e-07
4.416e-07
4.42269e-07
4.4294e-07
4.43613e-07
4.44288e-07
4.44966e-07
4.45645e-07
4.46327e-07
4.47011e-07
4.47697e-07
4.48384e-07
4.49069e-07
4.49762e-07
4.50457e-07
4.51154e-07
4.51854e-07
4.52555e-07
4.53259e-07
4.53965e-07
4.54674e-07
4.55384e-07
4.56097e-07
4.56812e-07
4.5753e-07
4.58249e-07
4.58971e-07
4.59695e-07
4.60422e-07
4.6115e-07
4.61881e-07
4.62614e-07
4.6335e-07
4.64088e-07
4.64828e-07
4.6557e-07
4.66315e-07
4.67062e-07
4.67811e-07
4.68563e-07
4.69317e-07
4.70073e-07
4.70832e-07
4.71592e-07
4.72356e-07
4.73122e-07
4.7389e-07
4.7466e-07
4.75433e-07
4.76209e-07
4.76986e-07
4.77767e-07
4.78549e-07
4.79335e-07
4.80119e-07
4.80903e-07
4.81696e-07
4.82491e-07
4.83289e-07
4.8409e-07
4.84892e-07
4.85698e-07
4.86506e-07
4.87316e-07
4.8813e-07
4.88946e-07
4.89764e-07
4.90585e-07
4.91409e-07
4.92236e-07
4.93065e-07
4.93898e-07
4.94732e-07
4.9557e-07
4.96411e-07
4.97254e-07
4.981e-07
4.98949e-07
4.99801e-07
5.00656e-07
5.01514e-07
5.02375e-07
5.03239e-07
5.04105e-07
5.04975e-07
5.05848e-07
5.06723e-07
5.07602e-07
5.08484e-07
5.09369e-07
5.10257e-07
5.11148e-07
5.12043e-07
5.1294e-07
5.13841e-07
5.14745e-07
5.15652e-07
5.16562e-07
5.17476e-07
5.18393e-07
5.19313e-07
5.20236e-07
5.21163e-07
5.22093e-07
5.23027e-07
5.23963e-07
5.24904e-07
5.25847e-07
5.26794e-07
5.27745e-07
5.28699e-07
5.29656e-07
5.30617e-07
5.31581e-07
5.32549e-07
5.33521e-07
5.34496e-07
5.35474e-07
5.36457e-07
5.37442e-07
5.38432e-07
5.39425e-07
5.40419e-07
5.41412e-07
5.42417e-07
5.43425e-07
5.44436e-07
5.45452e-07
5.46471e-07
5.47494e-07
5.48521e-07
5.49552e-07
5.50587e-07
5.51626e-07
5.52668e-07
5.53715e-07
5.54766e-07
5.55821e-07
5.56879e-07
5.57942e-07
5.59009e-07
5.6008e-07
5.61156e-07
5.62235e-07
5.63319e-07
5.64407e-07
5.65499e-07
5.66596e-07
5.67696e-07
5.68802e-07
5.69911e-07
5.71025e-07
5.72144e-07
5.73266e-07
5.74394e-07
5.75526e-07
5.76662e-07
5.77803e-07
5.78948e-07
5.80098e-07
5.81253e-07
5.82413e-07
5.83577e-07
5.84745e-07
5.85919e-07
5.87097e-07
5.8828e-07
5.89467e-07
5.9066e-07
5.91857e-07
5.93059e-07
5.94266e-07
5.95477e-07
5.96694e-07
5.97916e-07
5.99142e-07
6.00373e-07
6.0161e-07
6.02851e-07
6.04088e-07
6.05338e-07
6.06593e-07
6.07854e-07
6.0912e-07
6.10391e-07
6.11667e-07
6.12949e-07
6.14236e-07
6.15528e-07
6.16825e-07
6.18128e-07
6.19436e-07
6.20749e-07
6.22068e-07
6.23392e-07
6.24721e-07
6.26056e-07
6.27397e-07
6.28743e-07
6.30095e-07
6.31452e-07
6.32816e-07
6.34185e-07
6.3556e-07
6.3694e-07
6.38327e-07
6.39719e-07
6.41118e-07
6.42523e-07
6.43933e-07
6.4535e-07
6.46774e-07
6.48203e-07
6.49639e-07
6.51081e-07
6.5253e-07
6.53985e-07
6.55447e-07
6.56915e-07
6.5839e-07
6.59872e-07
6.61361e-07
6.62856e-07
6.64359e-07
6.65868e-07
6.67384e-07
6.68908e-07
6.70438e-07
6.71976e-07
6.73521e-07
6.75073e-07
6.76632e-07
6.78199e-07
6.79773e-07
6.81355e-07
6.82944e-07
6.84541e-07
6.8614e-07
6.8774e-07
6.89361e-07
6.90989e-07
6.92624e-07
6.94268e-07
6.95919e-07
6.97579e-07
6.99246e-07
7.00921e-07
7.02604e-07
7.04295e-07
7.05994e-07
7.07702e-07
7.09417e-07
7.11141e-07
7.12873e-07
7.14613e-07
7.16362e-07
7.1812e-07
7.19885e-07
7.2166e-07
7.23443e-07
7.25235e-07
7.27035e-07
7.28845e-07
7.30663e-07
7.3249e-07
7.34327e-07
7.36173e-07
7.38027e-07
7.39892e-07
7.41765e-07
7.43649e-07
7.45541e-07
7.47444e-07
7.49356e-07
7.51279e-07
7.53211e-07
7.55153e-07
7.57106e-07
7.59068e-07
7.61042e-07
7.63025e-07
7.65019e-07
7.67024e-07
7.6904e-07
7.71067e-07
7.73104e-07
7.75153e-07
7.77212e-07
7.79284e-07
7.81366e-07
7.8346e-07
7.85565e-07
7.87682e-07
7.89811e-07
7.91952e-07
7.94104e-07
7.96268e-07
7.98445e-07
8.00633e-07
8.02834e-07
8.05047e-07
8.07273e-07
8.09511e-07
8.11761e-07
8.14025e-07
8.163e-07
8.18589e-07
8.2089e-07
8.23204e-07
8.25531e-07
8.27872e-07
8.30225e-07
8.32591e-07
8.34971e-07
8.37364e-07
8.3977e-07
8.42189e-07
8.44623e-07
8.47069e-07
8.49524e-07
8.5198e-07
8.54467e-07
8.56967e-07
8.59482e-07
8.62011e-07
8.64553e-07
8.6711e-07
8.69682e-07
8.72268e-07
8.74868e-07
8.77484e-07
8.80114e-07
8.82759e-07
8.85419e-07
8.88095e-07
8.90785e-07
8.93492e-07
8.96214e-07
8.98952e-07
9.01705e-07
9.04475e-07
9.07262e-07
9.10065e-07
9.12884e-07
9.15721e-07
9.18575e-07
9.21446e-07
9.24335e-07
9.27242e-07
9.30166e-07
9.33109e-07
9.36071e-07
9.39051e-07
9.4205e-07
9.45069e-07
9.48107e-07
9.51165e-07
9.54243e-07
9.57341e-07
9.6046e-07
9.63599e-07
9.6676e-07
9.69942e-07
9.73145e-07
9.76371e-07
9.79618e-07
9.82888e-07
9.86181e-07
9.89497e-07
9.92835e-07
9.96198e-07
9.99584e-07
1.00299e-06
1.00643e-06
1.00988e-06
1.01334e-06
1.01685e-06
1.02038e-06
1.02394e-06
1.02753e-06
1.03114e-06
1.03478e-06
1.03844e-06
1.04214e-06
1.04586e-06
1.0496e-06
1.05338e-06
1.05718e-06
1.06101e-06
1.06487e-06
1.06876e-06
1.07268e-06
1.07663e-06
1.0806e-06
1.08461e-06
1.08865e-06
1.09272e-06
1.09682e-06
1.10095e-06
1.10511e-06
1.10931e-06
1.11353e-06
1.11779e-06
1.12208e-06
1.12641e-06
1.13077e-06
1.13516e-06
1.13958e-06
1.14404e-06
1.14854e-06
1.15307e-06
1.15763e-06
1.16223e-06
1.16687e-06
1.17154e-06
1.17625e-06
1.181e-06
1.18578e-06
1.19061e-06
1.19547e-06
1.20036e-06
1.2053e-06
1.21028e-06
1.21529e-06
1.22035e-06
1.22544e-06
1.23058e-06
1.23576e-06
1.24098e-06
1.24624e-06
1.25155e-06
1.2569e-06
1.26225e-06
1.26769e-06
1.27317e-06
1.2787e-06
1.28428e-06
1.2899e-06
1.29557e-06
1.30129e-06
1.30706e-06
1.31288e-06
1.31875e-06
1.32467e-06
1.33064e-06
1.33666e-06
1.34274e-06
1.34888e-06
1.35506e-06
1.36131e-06
1.36761e-06
1.37397e-06
1.38039e-06
1.38687e-06
1.39341e-06
1.40001e-06
1.40667e-06
1.4134e-06
1.42019e-06
1.42705e-06
1.43397e-06
1.44097e-06
1.44803e-06
1.45516e-06
1.46236e-06
1.46964e-06
1.47699e-06
1.48441e-06
1.49191e-06
1.49949e-06
1.50714e-06
1.51487e-06
1.52263e-06
1.53052e-06
1.53851e-06
1.54657e-06
1.55472e-06
1.56296e-06
1.57129e-06
1.57971e-06
1.58821e-06
1.59681e-06
1.60551e-06
1.61429e-06
1.62318e-06
1.63216e-06
1.64124e-06
1.65042e-06
1.6597e-06
1.66908e-06
1.67857e-06
1.68817e-06
1.69787e-06
1.70769e-06
1.71762e-06
1.72766e-06
1.73782e-06
1.7481e-06
1.7585e-06
1.76903e-06
1.77968e-06
1.79046e-06
1.80137e-06
1.81241e-06
1.82359e-06
1.8349e-06
1.84636e-06
1.85796e-06
1.86971e-06
1.88161e-06
1.89366e-06
1.90587e-06
1.91823e-06
1.93075e-06
1.94344e-06
1.9563e-06
1.96932e-06
1.98252e-06
1.99589e-06
2.00944e-06
2.02318e-06
2.0371e-06
2.05121e-06
2.06542e-06
2.07981e-06
2.09451e-06
2.10941e-06
2.12452e-06
2.13984e-06
2.15538e-06
2.17115e-06
2.18714e-06
2.20337e-06
2.21984e-06
2.23656e-06
2.25354e-06
2.27078e-06
2.28829e-06
2.30608e-06
2.32413e-06
2.34238e-06
2.3609e-06
2.37983e-06
2.39905e-06
2.41861e-06
2.43849e-06
2.4587e-06
2.47927e-06
2.50018e-06
2.52147e-06
2.54312e-06
2.56517e-06
2.58762e-06
2.61048e-06
2.63377e-06
2.65752e-06
2.68173e-06
2.70645e-06
2.7317e-06
2.75752e-06
2.78396e-06
2.81108e-06
2.83895e-06
2.86765e-06
2.8973e-06
2.92801e-06
2.95995e-06
2.9933e-06
3.0283e-06
3.06524e-06
3.10444e-06
3.14632e-06
3.19137e-06
3.24016e-06
3.29339e-06
3.35186e-06
3.41651e-06
3.48847e-06
3.56898e-06
3.65951e-06
3.76169e-06
3.87737e-06
4.00857e-06
4.15747e-06
4.32643e-06
4.51782e-06
4.73403e-06
4.97728e-06
5.24943e-06
5.55171e-06
5.88442e-06
6.24641e-06
6.63465e-06
7.04353e-06
7.46422e-06
7.88406e-06
8.28599e-06
8.64837e-06
8.94522e-06
9.14712e-06
9.22026e-06
9.13898e-06
8.87264e-06
8.39781e-06
7.69765e-06
6.76311e-06
5.59411e-06
4.20152e-06
2.61163e-06
8.77325e-07
)
;

boundaryField
{
    fixedWall
    {
        type            zeroGradient;
    }
    outlet
    {
        type            inletOutlet;
        inletValue      uniform 0;
        value           uniform 0;
    }
    defaultFaces
    {
        type            empty;
    }
}


// ************************************************************************* //
