/*--------------------------------*- C++ -*----------------------------------*\
| =========                 |                                                 |
| \\      /  F ield         | OpenFOAM: The Open Source CFD Toolbox           |
|  \\    /   O peration     | Version:  2406                                  |
|   \\  /    A nd           | Website:  www.openfoam.com                      |
|    \\/     M anipulation  |                                                 |
\*---------------------------------------------------------------------------*/
FoamFile
{
    version     2.0;
    format      ascii;
    arch        "LSB;label=32;scalar=64";
    class       surfaceScalarField;
    location    "6.6";
    object      phi;
}
// * * * * * * * * * * * * * * * * * * * * * * * * * * * * * * * * * * * * * //

dimensions      [1 0 -1 0 0 0 0];

oriented        oriented;

internalField   nonuniform List<scalar> 
999
(
-3.45438e-08
-1.10751e-07
-2.10335e-07
-3.23389e-07
-4.44161e-07
-5.69148e-07
-6.96132e-07
-8.2368e-07
-9.50843e-07
-1.07699e-06
-1.2017e-06
-1.32467e-06
-1.44573e-06
-1.56475e-06
-1.68165e-06
-1.7964e-06
-1.90897e-06
-2.01936e-06
-2.12758e-06
-2.23365e-06
-2.3376e-06
-2.43944e-06
-2.53922e-06
-2.63696e-06
-2.73269e-06
-2.82645e-06
-2.91828e-06
-3.0082e-06
-3.09625e-06
-3.18245e-06
-3.26685e-06
-3.34947e-06
-3.43034e-06
-3.50949e-06
-3.58694e-06
-3.66273e-06
-3.73689e-06
-3.80943e-06
-3.88038e-06
-3.94977e-06
-4.01762e-06
-4.08396e-06
-4.14881e-06
-4.21219e-06
-4.27412e-06
-4.33463e-06
-4.39373e-06
-4.45146e-06
-4.50782e-06
-4.56284e-06
-4.61655e-06
-4.66895e-06
-4.72007e-06
-4.76994e-06
-4.81856e-06
-4.86596e-06
-4.91216e-06
-4.95718e-06
-5.00103e-06
-5.04374e-06
-5.08531e-06
-5.12578e-06
-5.16516e-06
-5.20347e-06
-5.24073e-06
-5.27695e-06
-5.31216e-06
-5.34636e-06
-5.37959e-06
-5.41185e-06
-5.44317e-06
-5.47356e-06
-5.50304e-06
-5.53164e-06
-5.55936e-06
-5.58622e-06
-5.61225e-06
-5.63745e-06
-5.66185e-06
-5.68547e-06
-5.70831e-06
-5.7304e-06
-5.75176e-06
-5.7724e-06
-5.79234e-06
-5.8116e-06
-5.83019e-06
-5.84812e-06
-5.86542e-06
-5.8821e-06
-5.89818e-06
-5.91367e-06
-5.92858e-06
-5.94294e-06
-5.95676e-06
-5.97005e-06
-5.98284e-06
-5.99512e-06
-6.00692e-06
-6.01826e-06
-6.02914e-06
-6.03958e-06
-6.04959e-06
-6.05919e-06
-6.0684e-06
-6.07721e-06
-6.08565e-06
-6.09373e-06
-6.10146e-06
-6.10885e-06
-6.11592e-06
-6.12266e-06
-6.12911e-06
-6.13525e-06
-6.14111e-06
-6.1467e-06
-6.15202e-06
-6.15707e-06
-6.16193e-06
-6.16656e-06
-6.17096e-06
-6.17515e-06
-6.17912e-06
-6.1829e-06
-6.18649e-06
-6.1899e-06
-6.19314e-06
-6.19621e-06
-6.19912e-06
-6.20188e-06
-6.2045e-06
-6.20698e-06
-6.20932e-06
-6.21154e-06
-6.21364e-06
-6.21563e-06
-6.2175e-06
-6.21927e-06
-6.22095e-06
-6.22253e-06
-6.22401e-06
-6.22542e-06
-6.22674e-06
-6.22799e-06
-6.22916e-06
-6.23027e-06
-6.2313e-06
-6.23228e-06
-6.2332e-06
-6.23406e-06
-6.23487e-06
-6.23564e-06
-6.23635e-06
-6.23702e-06
-6.23765e-06
-6.23824e-06
-6.23879e-06
-6.23931e-06
-6.23979e-06
-6.24024e-06
-6.24067e-06
-6.24106e-06
-6.24143e-06
-6.24178e-06
-6.2421e-06
-6.24241e-06
-6.24269e-06
-6.24295e-06
-6.2432e-06
-6.24343e-06
-6.24364e-06
-6.24384e-06
-6.24403e-06
-6.2442e-06
-6.24437e-06
-6.24452e-06
-6.24466e-06
-6.24479e-06
-6.24491e-06
-6.24503e-06
-6.24514e-06
-6.24523e-06
-6.24533e-06
-6.24541e-06
-6.24549e-06
-6.24557e-06
-6.24564e-06
-6.2457e-06
-6.24577e-06
-6.24582e-06
-6.24588e-06
-6.24593e-06
-6.24597e-06
-6.24602e-06
-6.24606e-06
-6.2461e-06
-6.24613e-06
-6.24617e-06
-6.2462e-06
-6.24623e-06
-6.24626e-06
-6.24628e-06
-6.24631e-06
-6.24633e-06
-6.24635e-06
-6.24637e-06
-6.24639e-06
-6.24641e-06
-6.24643e-06
-6.24644e-06
-6.24646e-06
-6.24647e-06
-6.24649e-06
-6.2465e-06
-6.24651e-06
-6.24652e-06
-6.24653e-06
-6.24654e-06
-6.24655e-06
-6.24656e-06
-6.24657e-06
-6.24658e-06
-6.24658e-06
-6.24659e-06
-6.24659e-06
-6.2466e-06
-6.2466e-06
-6.24661e-06
-6.24661e-06
-6.24661e-06
-6.24662e-06
-6.24662e-06
-6.24662e-06
-6.24662e-06
-6.24662e-06
-6.24662e-06
-6.24662e-06
-6.24662e-06
-6.24662e-06
-6.24662e-06
-6.24662e-06
-6.24662e-06
-6.24662e-06
-6.24662e-06
-6.24661e-06
-6.24661e-06
-6.24661e-06
-6.2466e-06
-6.2466e-06
-6.2466e-06
-6.24659e-06
-6.24659e-06
-6.24658e-06
-6.24658e-06
-6.24657e-06
-6.24656e-06
-6.24656e-06
-6.24655e-06
-6.24654e-06
-6.24654e-06
-6.24653e-06
-6.24652e-06
-6.24652e-06
-6.24651e-06
-6.2465e-06
-6.24649e-06
-6.24648e-06
-6.24647e-06
-6.24646e-06
-6.24645e-06
-6.24644e-06
-6.24643e-06
-6.24642e-06
-6.24641e-06
-6.2464e-06
-6.24639e-06
-6.24638e-06
-6.24637e-06
-6.24636e-06
-6.24635e-06
-6.24634e-06
-6.24632e-06
-6.24631e-06
-6.2463e-06
-6.24629e-06
-6.24628e-06
-6.24627e-06
-6.24625e-06
-6.24624e-06
-6.24623e-06
-6.24622e-06
-6.24621e-06
-6.24619e-06
-6.24618e-06
-6.24617e-06
-6.24616e-06
-6.24614e-06
-6.24613e-06
-6.24612e-06
-6.24611e-06
-6.24609e-06
-6.24608e-06
-6.24607e-06
-6.24605e-06
-6.24604e-06
-6.24603e-06
-6.24602e-06
-6.246e-06
-6.24599e-06
-6.24598e-06
-6.24597e-06
-6.24595e-06
-6.24594e-06
-6.24593e-06
-6.24592e-06
-6.2459e-06
-6.24589e-06
-6.24588e-06
-6.24587e-06
-6.24585e-06
-6.24584e-06
-6.24583e-06
-6.24582e-06
-6.24581e-06
-6.2458e-06
-6.24579e-06
-6.24578e-06
-6.24576e-06
-6.24575e-06
-6.24574e-06
-6.24573e-06
-6.24572e-06
-6.24571e-06
-6.2457e-06
-6.24569e-06
-6.24569e-06
-6.24568e-06
-6.24567e-06
-6.24566e-06
-6.24565e-06
-6.24564e-06
-6.24564e-06
-6.24563e-06
-6.24562e-06
-6.24561e-06
-6.24561e-06
-6.2456e-06
-6.24559e-06
-6.24559e-06
-6.24559e-06
-6.24558e-06
-6.24557e-06
-6.24557e-06
-6.24557e-06
-6.24556e-06
-6.24556e-06
-6.24556e-06
-6.24556e-06
-6.24555e-06
-6.24555e-06
-6.24555e-06
-6.24555e-06
-6.24555e-06
-6.24555e-06
-6.24555e-06
-6.24555e-06
-6.24555e-06
-6.24555e-06
-6.24555e-06
-6.24555e-06
-6.24555e-06
-6.24556e-06
-6.24556e-06
-6.24556e-06
-6.24557e-06
-6.24557e-06
-6.24557e-06
-6.24558e-06
-6.24558e-06
-6.24559e-06
-6.24559e-06
-6.2456e-06
-6.2456e-06
-6.24561e-06
-6.24562e-06
-6.24562e-06
-6.24563e-06
-6.24563e-06
-6.24564e-06
-6.24565e-06
-6.24565e-06
-6.24566e-06
-6.24567e-06
-6.24567e-06
-6.24568e-06
-6.24569e-06
-6.24569e-06
-6.2457e-06
-6.2457e-06
-6.24571e-06
-6.24572e-06
-6.24572e-06
-6.24573e-06
-6.24573e-06
-6.24574e-06
-6.24574e-06
-6.24575e-06
-6.24575e-06
-6.24575e-06
-6.24576e-06
-6.24576e-06
-6.24577e-06
-6.24577e-06
-6.24577e-06
-6.24577e-06
-6.24577e-06
-6.24577e-06
-6.24578e-06
-6.24578e-06
-6.24578e-06
-6.24578e-06
-6.24577e-06
-6.24577e-06
-6.24577e-06
-6.24577e-06
-6.24577e-06
-6.24577e-06
-6.24576e-06
-6.24576e-06
-6.24576e-06
-6.24575e-06
-6.24575e-06
-6.24574e-06
-6.24574e-06
-6.24574e-06
-6.24573e-06
-6.24573e-06
-6.24572e-06
-6.24571e-06
-6.24571e-06
-6.2457e-06
-6.2457e-06
-6.24569e-06
-6.24568e-06
-6.24567e-06
-6.24567e-06
-6.24566e-06
-6.24565e-06
-6.24565e-06
-6.24564e-06
-6.24563e-06
-6.24563e-06
-6.24562e-06
-6.24561e-06
-6.24561e-06
-6.2456e-06
-6.2456e-06
-6.24559e-06
-6.24559e-06
-6.24558e-06
-6.24558e-06
-6.24557e-06
-6.24556e-06
-6.24556e-06
-6.24556e-06
-6.24555e-06
-6.24555e-06
-6.24554e-06
-6.24554e-06
-6.24554e-06
-6.24553e-06
-6.24553e-06
-6.24553e-06
-6.24552e-06
-6.24552e-06
-6.24552e-06
-6.24551e-06
-6.24551e-06
-6.24551e-06
-6.24551e-06
-6.24551e-06
-6.2455e-06
-6.2455e-06
-6.2455e-06
-6.2455e-06
-6.2455e-06
-6.2455e-06
-6.2455e-06
-6.2455e-06
-6.2455e-06
-6.24549e-06
-6.24549e-06
-6.24549e-06
-6.24549e-06
-6.24549e-06
-6.24549e-06
-6.24549e-06
-6.24549e-06
-6.24549e-06
-6.24549e-06
-6.24549e-06
-6.24549e-06
-6.24549e-06
-6.24549e-06
-6.24549e-06
-6.24549e-06
-6.24549e-06
-6.24549e-06
-6.24549e-06
-6.24549e-06
-6.24549e-06
-6.24549e-06
-6.24549e-06
-6.24549e-06
-6.24549e-06
-6.24549e-06
-6.24549e-06
-6.24549e-06
-6.24549e-06
-6.24549e-06
-6.2455e-06
-6.2455e-06
-6.2455e-06
-6.2455e-06
-6.2455e-06
-6.2455e-06
-6.2455e-06
-6.2455e-06
-6.2455e-06
-6.2455e-06
-6.2455e-06
-6.2455e-06
-6.2455e-06
-6.24551e-06
-6.24551e-06
-6.24551e-06
-6.24551e-06
-6.24551e-06
-6.24551e-06
-6.24551e-06
-6.24551e-06
-6.24551e-06
-6.24551e-06
-6.24551e-06
-6.24551e-06
-6.2455e-06
-6.2455e-06
-6.2455e-06
-6.2455e-06
-6.24549e-06
-6.24549e-06
-6.24549e-06
-6.24548e-06
-6.24548e-06
-6.24548e-06
-6.24547e-06
-6.24547e-06
-6.24546e-06
-6.24545e-06
-6.24545e-06
-6.24544e-06
-6.24543e-06
-6.24542e-06
-6.24542e-06
-6.24541e-06
-6.2454e-06
-6.24539e-06
-6.24538e-06
-6.24537e-06
-6.24536e-06
-6.24535e-06
-6.24534e-06
-6.24532e-06
-6.24531e-06
-6.2453e-06
-6.24529e-06
-6.24528e-06
-6.24526e-06
-6.24525e-06
-6.24524e-06
-6.24523e-06
-6.24521e-06
-6.2452e-06
-6.24519e-06
-6.24518e-06
-6.24517e-06
-6.24515e-06
-6.24514e-06
-6.24513e-06
-6.24512e-06
-6.24511e-06
-6.2451e-06
-6.24509e-06
-6.24509e-06
-6.24508e-06
-6.24507e-06
-6.24506e-06
-6.24506e-06
-6.24505e-06
-6.24505e-06
-6.24504e-06
-6.24504e-06
-6.24504e-06
-6.24503e-06
-6.24503e-06
-6.24503e-06
-6.24503e-06
-6.24503e-06
-6.24503e-06
-6.24503e-06
-6.24503e-06
-6.24503e-06
-6.24503e-06
-6.24503e-06
-6.24504e-06
-6.24504e-06
-6.24504e-06
-6.24505e-06
-6.24505e-06
-6.24505e-06
-6.24506e-06
-6.24506e-06
-6.24506e-06
-6.24507e-06
-6.24507e-06
-6.24507e-06
-6.24508e-06
-6.24508e-06
-6.24508e-06
-6.24509e-06
-6.24509e-06
-6.24509e-06
-6.24509e-06
-6.2451e-06
-6.2451e-06
-6.2451e-06
-6.2451e-06
-6.2451e-06
-6.2451e-06
-6.2451e-06
-6.2451e-06
-6.2451e-06
-6.2451e-06
-6.2451e-06
-6.24509e-06
-6.24509e-06
-6.24509e-06
-6.24509e-06
-6.24509e-06
-6.24508e-06
-6.24508e-06
-6.24508e-06
-6.24508e-06
-6.24508e-06
-6.24508e-06
-6.24507e-06
-6.24507e-06
-6.24507e-06
-6.24507e-06
-6.24507e-06
-6.24507e-06
-6.24507e-06
-6.24507e-06
-6.24507e-06
-6.24507e-06
-6.24507e-06
-6.24507e-06
-6.24507e-06
-6.24507e-06
-6.24507e-06
-6.24507e-06
-6.24508e-06
-6.24508e-06
-6.24508e-06
-6.24508e-06
-6.24509e-06
-6.24509e-06
-6.24509e-06
-6.24509e-06
-6.2451e-06
-6.2451e-06
-6.2451e-06
-6.2451e-06
-6.2451e-06
-6.2451e-06
-6.2451e-06
-6.2451e-06
-6.2451e-06
-6.2451e-06
-6.24509e-06
-6.24509e-06
-6.24508e-06
-6.24508e-06
-6.24507e-06
-6.24506e-06
-6.24505e-06
-6.24504e-06
-6.24503e-06
-6.24502e-06
-6.245e-06
-6.24499e-06
-6.24497e-06
-6.24495e-06
-6.24493e-06
-6.24491e-06
-6.24489e-06
-6.24487e-06
-6.24484e-06
-6.24481e-06
-6.24478e-06
-6.24476e-06
-6.24473e-06
-6.2447e-06
-6.24466e-06
-6.24463e-06
-6.2446e-06
-6.24456e-06
-6.24453e-06
-6.2445e-06
-6.24446e-06
-6.24442e-06
-6.24439e-06
-6.24435e-06
-6.24432e-06
-6.24428e-06
-6.24425e-06
-6.24422e-06
-6.24418e-06
-6.24415e-06
-6.24412e-06
-6.24409e-06
-6.24406e-06
-6.24403e-06
-6.24401e-06
-6.24398e-06
-6.24396e-06
-6.24394e-06
-6.24392e-06
-6.2439e-06
-6.24388e-06
-6.24387e-06
-6.24386e-06
-6.24385e-06
-6.24384e-06
-6.24384e-06
-6.24383e-06
-6.24383e-06
-6.24384e-06
-6.24384e-06
-6.24385e-06
-6.24385e-06
-6.24386e-06
-6.24387e-06
-6.24389e-06
-6.2439e-06
-6.24392e-06
-6.24394e-06
-6.24396e-06
-6.24398e-06
-6.24401e-06
-6.24404e-06
-6.24406e-06
-6.24409e-06
-6.24412e-06
-6.24415e-06
-6.24417e-06
-6.24421e-06
-6.24424e-06
-6.24427e-06
-6.2443e-06
-6.24433e-06
-6.24436e-06
-6.24439e-06
-6.24442e-06
-6.24445e-06
-6.24448e-06
-6.24451e-06
-6.24454e-06
-6.24457e-06
-6.24459e-06
-6.24462e-06
-6.24464e-06
-6.24466e-06
-6.24468e-06
-6.2447e-06
-6.24472e-06
-6.24473e-06
-6.24475e-06
-6.24476e-06
-6.24477e-06
-6.24477e-06
-6.24478e-06
-6.24478e-06
-6.24478e-06
-6.24477e-06
-6.24477e-06
-6.24476e-06
-6.24475e-06
-6.24474e-06
-6.24472e-06
-6.24471e-06
-6.24469e-06
-6.24467e-06
-6.24464e-06
-6.24461e-06
-6.24458e-06
-6.24455e-06
-6.24452e-06
-6.24448e-06
-6.24444e-06
-6.2444e-06
-6.24436e-06
-6.24431e-06
-6.24427e-06
-6.24422e-06
-6.24417e-06
-6.24412e-06
-6.24407e-06
-6.24402e-06
-6.24397e-06
-6.24391e-06
-6.24386e-06
-6.24381e-06
-6.24376e-06
-6.2437e-06
-6.24365e-06
-6.2436e-06
-6.24355e-06
-6.2435e-06
-6.24345e-06
-6.2434e-06
-6.24336e-06
-6.24331e-06
-6.24327e-06
-6.24323e-06
-6.24319e-06
-6.24316e-06
-6.24312e-06
-6.24309e-06
-6.24306e-06
-6.24304e-06
-6.24301e-06
-6.24299e-06
-6.24298e-06
-6.24296e-06
-6.24295e-06
-6.24294e-06
-6.24293e-06
-6.24293e-06
-6.24292e-06
-6.24292e-06
-6.24292e-06
-6.24293e-06
-6.24293e-06
-6.24294e-06
-6.24295e-06
-6.24296e-06
-6.24297e-06
-6.24298e-06
-6.24299e-06
-6.243e-06
-6.24301e-06
-6.24302e-06
-6.24303e-06
-6.24304e-06
-6.24305e-06
-6.24306e-06
-6.24307e-06
-6.24307e-06
-6.24307e-06
-6.24307e-06
-6.24307e-06
-6.24307e-06
-6.24306e-06
-6.24305e-06
-6.24305e-06
-6.24303e-06
-6.24302e-06
-6.243e-06
-6.24298e-06
-6.24296e-06
-6.24294e-06
-6.24292e-06
-6.2429e-06
-6.24287e-06
-6.24285e-06
-6.24282e-06
-6.24279e-06
-6.24277e-06
-6.24274e-06
-6.24271e-06
-6.24269e-06
-6.24266e-06
-6.24263e-06
-6.2426e-06
-6.24257e-06
-6.24254e-06
-6.24251e-06
-6.24248e-06
-6.24244e-06
-6.24241e-06
-6.24237e-06
-6.24233e-06
-6.24229e-06
-6.24224e-06
-6.2422e-06
-6.24215e-06
-6.24209e-06
-6.24204e-06
-6.24198e-06
-6.24192e-06
-6.24185e-06
-6.24179e-06
-6.24172e-06
-6.24165e-06
-6.24159e-06
-6.24152e-06
-6.24145e-06
-6.24139e-06
-6.24133e-06
-6.24127e-06
-6.24122e-06
-6.24117e-06
-6.24113e-06
-6.24109e-06
-6.24107e-06
-6.24105e-06
-6.24105e-06
-6.24106e-06
-6.24108e-06
-6.24112e-06
-6.24118e-06
-6.24126e-06
-6.24138e-06
-6.24153e-06
-6.24173e-06
-6.24199e-06
-6.24233e-06
-6.24276e-06
-6.2433e-06
-6.244e-06
-6.24489e-06
-6.24602e-06
-6.24745e-06
-6.24927e-06
-6.25156e-06
-6.25445e-06
-6.25809e-06
-6.26264e-06
-6.26832e-06
-6.2754e-06
-6.28419e-06
-6.29506e-06
-6.30845e-06
-6.32491e-06
-6.34505e-06
-6.36961e-06
-6.39945e-06
-6.43557e-06
-6.47914e-06
-6.53147e-06
-6.5941e-06
-6.66875e-06
-6.75737e-06
-6.86216e-06
-6.98557e-06
-7.13029e-06
-7.29933e-06
-7.49593e-06
-7.72366e-06
-7.98632e-06
-8.28804e-06
-8.63319e-06
-9.0264e-06
-9.47256e-06
-9.97679e-06
-1.05444e-05
-1.1181e-05
-1.18923e-05
-1.26843e-05
-1.35631e-05
-1.45351e-05
-1.56069e-05
-1.67855e-05
-1.80779e-05
-1.9492e-05
-2.10357e-05
-2.27179e-05
-2.45475e-05
-2.65336e-05
-2.86303e-05
-3.10296e-05
-3.36268e-05
-3.64497e-05
-3.95246e-05
-4.28697e-05
-4.64758e-05
-5.02481e-05
-5.38312e-05
)
;

boundaryField
{
    fixedWall
    {
        type            calculated;
        value           uniform 0;
    }
    outlet
    {
        type            calculated;
        value           uniform -5.59858e-05;
    }
    defaultFaces
    {
        type            empty;
    }
}


// ************************************************************************* //
