/*--------------------------------*- C++ -*----------------------------------*\
| =========                 |                                                 |
| \\      /  F ield         | OpenFOAM: The Open Source CFD Toolbox           |
|  \\    /   O peration     | Version:  2406                                  |
|   \\  /    A nd           | Website:  www.openfoam.com                      |
|    \\/     M anipulation  |                                                 |
\*---------------------------------------------------------------------------*/
FoamFile
{
    version     2.0;
    format      ascii;
    arch        "LSB;label=32;scalar=64";
    class       volScalarField;
    location    "6.6";
    object      T;
}
// * * * * * * * * * * * * * * * * * * * * * * * * * * * * * * * * * * * * * //

dimensions      [0 0 0 1 0 0 0];

internalField   nonuniform List<scalar> 
1000
(
309.023
337.979
364.351
388.624
411.14
432.157
451.873
470.445
487.999
504.64
520.454
535.514
549.884
563.616
576.758
589.351
601.43
613.029
624.175
634.894
645.21
655.143
664.713
673.937
682.832
691.411
699.689
707.679
715.391
722.838
730.03
736.975
743.684
750.165
756.426
762.475
768.318
773.964
779.418
784.687
789.777
794.693
799.442
804.028
808.457
812.734
816.862
820.848
824.695
828.407
831.989
835.445
838.778
841.993
845.092
848.08
850.959
853.734
856.408
858.983
861.462
863.849
866.147
868.358
870.485
872.53
874.497
876.388
878.205
879.951
881.628
883.238
884.784
886.267
887.69
889.055
890.363
891.618
892.819
893.971
895.073
896.129
897.139
898.105
899.029
899.913
900.757
901.564
902.335
903.071
903.773
904.443
905.082
905.691
906.272
906.825
907.352
907.854
908.331
908.786
909.218
909.628
910.019
910.389
910.741
911.075
911.392
911.693
911.978
912.249
912.505
912.747
912.976
913.194
913.399
913.593
913.777
913.95
914.113
914.267
914.412
914.55
914.68
914.802
914.917
915.026
915.128
915.224
915.314
915.399
915.478
915.553
915.623
915.689
915.751
915.809
915.863
915.914
915.961
916.006
916.047
916.086
916.122
916.156
916.187
916.217
916.244
916.27
916.293
916.316
916.336
916.355
916.373
916.389
916.404
916.418
916.431
916.443
916.454
916.465
916.474
916.483
916.491
916.498
916.505
916.511
916.516
916.521
916.526
916.53
916.534
916.538
916.541
916.543
916.546
916.548
916.55
916.552
916.553
916.554
916.555
916.556
916.557
916.558
916.558
916.558
916.559
916.559
916.559
916.559
916.558
916.558
916.558
916.557
916.557
916.556
916.556
916.555
916.554
916.554
916.553
916.552
916.551
916.55
916.549
916.548
916.547
916.546
916.545
916.544
916.543
916.542
916.541
916.54
916.539
916.538
916.537
916.536
916.535
916.534
916.532
916.531
916.53
916.529
916.528
916.527
916.526
916.525
916.524
916.522
916.521
916.52
916.519
916.518
916.517
916.516
916.515
916.514
916.513
916.512
916.511
916.51
916.509
916.508
916.507
916.506
916.505
916.504
916.503
916.502
916.501
916.5
916.499
916.499
916.498
916.497
916.496
916.495
916.495
916.494
916.493
916.492
916.492
916.491
916.49
916.49
916.489
916.488
916.488
916.487
916.487
916.486
916.486
916.485
916.485
916.484
916.484
916.483
916.483
916.483
916.482
916.482
916.482
916.481
916.481
916.481
916.48
916.48
916.48
916.48
916.48
916.479
916.479
916.479
916.479
916.479
916.479
916.479
916.479
916.479
916.479
916.479
916.479
916.479
916.479
916.479
916.479
916.479
916.48
916.48
916.48
916.48
916.48
916.481
916.481
916.481
916.481
916.482
916.482
916.482
916.483
916.483
916.483
916.484
916.484
916.484
916.485
916.485
916.485
916.486
916.486
916.487
916.487
916.488
916.488
916.489
916.489
916.49
916.49
916.491
916.491
916.492
916.492
916.493
916.493
916.494
916.494
916.495
916.495
916.496
916.496
916.497
916.497
916.498
916.498
916.499
916.499
916.5
916.5
916.501
916.502
916.502
916.503
916.503
916.503
916.504
916.504
916.505
916.505
916.506
916.506
916.507
916.507
916.507
916.508
916.508
916.509
916.509
916.509
916.51
916.51
916.51
916.51
916.511
916.511
916.511
916.511
916.512
916.512
916.512
916.512
916.512
916.512
916.513
916.513
916.513
916.513
916.513
916.513
916.513
916.513
916.513
916.513
916.513
916.513
916.513
916.513
916.513
916.513
916.513
916.513
916.513
916.513
916.513
916.512
916.512
916.512
916.512
916.512
916.512
916.512
916.512
916.512
916.512
916.511
916.511
916.511
916.511
916.511
916.511
916.511
916.511
916.511
916.511
916.511
916.51
916.51
916.51
916.51
916.51
916.51
916.51
916.51
916.51
916.51
916.51
916.51
916.51
916.51
916.51
916.51
916.51
916.51
916.51
916.51
916.511
916.511
916.511
916.511
916.511
916.511
916.511
916.511
916.511
916.511
916.511
916.512
916.512
916.512
916.512
916.512
916.512
916.512
916.512
916.513
916.513
916.513
916.513
916.513
916.513
916.513
916.513
916.513
916.514
916.514
916.514
916.514
916.514
916.514
916.514
916.514
916.514
916.514
916.515
916.515
916.515
916.515
916.515
916.515
916.515
916.515
916.515
916.515
916.515
916.515
916.515
916.515
916.515
916.515
916.515
916.515
916.515
916.515
916.515
916.515
916.515
916.515
916.515
916.515
916.515
916.515
916.515
916.515
916.515
916.515
916.515
916.515
916.515
916.515
916.515
916.515
916.515
916.515
916.514
916.514
916.514
916.514
916.514
916.514
916.514
916.514
916.514
916.513
916.513
916.513
916.513
916.513
916.513
916.513
916.513
916.512
916.512
916.512
916.512
916.512
916.512
916.512
916.512
916.512
916.511
916.511
916.511
916.511
916.511
916.511
916.511
916.511
916.511
916.511
916.511
916.511
916.511
916.511
916.511
916.511
916.511
916.511
916.511
916.511
916.511
916.512
916.512
916.512
916.512
916.512
916.512
916.513
916.513
916.513
916.513
916.513
916.514
916.514
916.514
916.514
916.515
916.515
916.515
916.516
916.516
916.516
916.516
916.517
916.517
916.517
916.517
916.518
916.518
916.518
916.518
916.519
916.519
916.519
916.519
916.519
916.519
916.52
916.52
916.52
916.52
916.52
916.52
916.52
916.52
916.52
916.52
916.521
916.521
916.521
916.521
916.521
916.52
916.52
916.52
916.52
916.52
916.52
916.52
916.52
916.52
916.52
916.52
916.52
916.52
916.519
916.519
916.519
916.519
916.519
916.519
916.519
916.519
916.518
916.518
916.518
916.518
916.518
916.518
916.518
916.517
916.517
916.517
916.517
916.517
916.517
916.516
916.516
916.516
916.516
916.516
916.515
916.515
916.515
916.515
916.514
916.514
916.514
916.514
916.513
916.513
916.513
916.512
916.512
916.512
916.511
916.511
916.511
916.51
916.51
916.51
916.509
916.509
916.509
916.508
916.508
916.508
916.507
916.507
916.507
916.506
916.506
916.506
916.506
916.505
916.505
916.505
916.505
916.505
916.505
916.505
916.505
916.505
916.505
916.505
916.505
916.505
916.505
916.506
916.506
916.506
916.507
916.507
916.508
916.508
916.509
916.509
916.51
916.51
916.511
916.512
916.513
916.513
916.514
916.515
916.516
916.517
916.518
916.518
916.519
916.52
916.521
916.522
916.523
916.524
916.525
916.526
916.526
916.527
916.528
916.529
916.53
916.53
916.531
916.532
916.532
916.533
916.533
916.534
916.534
916.534
916.535
916.535
916.535
916.535
916.535
916.535
916.535
916.535
916.535
916.535
916.535
916.534
916.534
916.533
916.533
916.532
916.532
916.531
916.53
916.53
916.529
916.528
916.527
916.526
916.525
916.524
916.523
916.522
916.521
916.52
916.519
916.517
916.516
916.515
916.514
916.513
916.512
916.51
916.509
916.508
916.507
916.506
916.505
916.504
916.503
916.502
916.501
916.5
916.499
916.498
916.497
916.497
916.496
916.495
916.495
916.494
916.494
916.494
916.493
916.493
916.493
916.493
916.493
916.493
916.493
916.493
916.493
916.493
916.494
916.494
916.494
916.495
916.495
916.496
916.496
916.497
916.498
916.498
916.499
916.5
916.5
916.501
916.502
916.502
916.503
916.504
916.504
916.505
916.506
916.506
916.507
916.507
916.508
916.508
916.509
916.509
916.509
916.51
916.51
916.51
916.51
916.51
916.51
916.51
916.51
916.51
916.51
916.51
916.51
916.509
916.509
916.509
916.508
916.508
916.508
916.507
916.507
916.506
916.506
916.505
916.505
916.504
916.504
916.504
916.503
916.503
916.502
916.502
916.501
916.501
916.5
916.5
916.499
916.499
916.499
916.498
916.498
916.497
916.497
916.496
916.496
916.496
916.495
916.495
916.495
916.494
916.494
916.494
916.493
916.493
916.493
916.493
916.493
916.493
916.493
916.493
916.493
916.493
916.493
916.494
916.494
916.494
916.494
916.495
916.495
916.495
916.495
916.496
916.496
916.496
916.496
916.495
916.495
916.494
916.494
916.493
916.491
916.489
916.487
916.483
916.479
916.474
916.468
916.46
916.45
916.437
916.421
916.401
916.376
916.344
916.305
916.257
916.196
916.121
916.029
915.915
915.775
915.604
915.396
915.142
914.835
914.464
914.018
913.484
912.847
912.09
911.195
910.139
908.899
907.451
905.764
903.807
901.548
898.948
895.968
892.565
888.691
884.296
879.323
873.711
867.392
860.29
852.316
843.372
833.34
822.084
809.439
795.211
779.161
761.002
740.803
717.366
690.489
659.513
623.647
581.95
533.348
476.698
410.919
335.145
)
;

boundaryField
{
    fixedWall
    {
        type            fixedValue;
        value           uniform 293;
    }
    outlet
    {
        type            inletOutlet;
        inletValue      uniform 293;
        value           uniform 293;
    }
    defaultFaces
    {
        type            empty;
    }
}


// ************************************************************************* //
