/*--------------------------------*- C++ -*----------------------------------*\
| =========                 |                                                 |
| \\      /  F ield         | OpenFOAM: The Open Source CFD Toolbox           |
|  \\    /   O peration     | Version:  2406                                  |
|   \\  /    A nd           | Website:  www.openfoam.com                      |
|    \\/     M anipulation  |                                                 |
\*---------------------------------------------------------------------------*/
FoamFile
{
    version     2.0;
    format      ascii;
    arch        "LSB;label=32;scalar=64";
    class       volScalarField;
    location    "3.3";
    object      H2O;
}
// * * * * * * * * * * * * * * * * * * * * * * * * * * * * * * * * * * * * * //

dimensions      [0 0 0 0 0 0 0];

internalField   nonuniform List<scalar> 
1000
(
0.0580663
0.0580663
0.0580663
0.0580663
0.0580663
0.0580663
0.0580663
0.0580663
0.0580663
0.0580663
0.0580663
0.0580663
0.0580664
0.0580664
0.0580664
0.0580664
0.0580664
0.0580664
0.0580664
0.0580664
0.0580665
0.0580665
0.0580665
0.0580665
0.0580665
0.0580665
0.0580665
0.0580666
0.0580666
0.0580666
0.0580666
0.0580666
0.0580666
0.0580666
0.0580666
0.0580666
0.0580667
0.0580667
0.0580667
0.0580667
0.0580667
0.0580667
0.0580667
0.0580667
0.0580667
0.0580667
0.0580667
0.0580667
0.0580668
0.0580668
0.0580668
0.0580668
0.0580668
0.0580668
0.0580668
0.0580668
0.0580668
0.0580668
0.0580668
0.0580668
0.0580668
0.0580668
0.0580668
0.0580668
0.0580668
0.0580668
0.0580668
0.0580668
0.0580668
0.0580668
0.0580668
0.0580668
0.0580668
0.0580668
0.0580668
0.0580668
0.0580668
0.0580668
0.0580668
0.0580668
0.0580668
0.0580668
0.0580668
0.0580668
0.0580668
0.0580668
0.0580668
0.0580668
0.0580668
0.0580668
0.0580668
0.0580668
0.0580668
0.0580668
0.0580668
0.0580668
0.0580668
0.0580668
0.0580668
0.0580668
0.0580668
0.0580668
0.0580668
0.0580668
0.0580668
0.0580668
0.0580668
0.0580668
0.0580668
0.0580668
0.0580668
0.0580668
0.0580668
0.0580668
0.0580668
0.0580668
0.0580668
0.0580668
0.0580668
0.0580668
0.0580668
0.0580668
0.0580668
0.0580668
0.0580668
0.0580668
0.0580668
0.0580668
0.0580668
0.0580668
0.0580668
0.0580668
0.0580668
0.0580668
0.0580668
0.0580668
0.0580668
0.0580667
0.0580667
0.0580667
0.0580667
0.0580667
0.0580667
0.0580667
0.0580667
0.0580667
0.0580667
0.0580667
0.0580667
0.0580667
0.0580667
0.0580667
0.0580667
0.0580667
0.0580667
0.0580667
0.0580667
0.0580667
0.0580667
0.0580667
0.0580667
0.0580667
0.0580667
0.0580667
0.0580667
0.0580667
0.0580667
0.0580667
0.0580667
0.0580667
0.0580667
0.0580667
0.0580667
0.0580667
0.0580667
0.0580667
0.0580667
0.0580667
0.0580667
0.0580667
0.0580667
0.0580667
0.0580667
0.0580667
0.0580667
0.0580667
0.0580667
0.0580667
0.0580667
0.0580667
0.0580667
0.0580667
0.0580667
0.0580667
0.0580667
0.0580667
0.0580667
0.0580667
0.0580667
0.0580667
0.0580667
0.0580667
0.0580667
0.0580667
0.0580667
0.0580667
0.0580666
0.0580666
0.0580666
0.0580666
0.0580666
0.0580666
0.0580666
0.0580666
0.0580666
0.0580666
0.0580666
0.0580666
0.0580666
0.0580666
0.0580666
0.0580666
0.0580666
0.0580666
0.0580666
0.0580666
0.0580666
0.0580666
0.0580666
0.0580666
0.0580666
0.0580666
0.0580666
0.0580666
0.0580666
0.0580666
0.0580666
0.0580666
0.0580666
0.0580666
0.0580666
0.0580666
0.0580666
0.0580666
0.0580666
0.0580666
0.0580666
0.0580666
0.0580666
0.0580666
0.0580666
0.0580666
0.0580666
0.0580666
0.0580665
0.0580665
0.0580665
0.0580665
0.0580665
0.0580665
0.0580665
0.0580665
0.0580665
0.0580665
0.0580665
0.0580665
0.0580665
0.0580665
0.0580665
0.0580665
0.0580665
0.0580665
0.0580665
0.0580665
0.0580665
0.0580665
0.0580665
0.0580665
0.0580665
0.0580665
0.0580665
0.0580665
0.0580665
0.0580665
0.0580665
0.0580665
0.0580665
0.0580665
0.0580665
0.0580664
0.0580664
0.0580664
0.0580664
0.0580664
0.0580664
0.0580664
0.0580664
0.0580664
0.0580664
0.0580664
0.0580664
0.0580664
0.0580664
0.0580664
0.0580664
0.0580664
0.0580664
0.0580664
0.0580664
0.0580664
0.0580664
0.0580664
0.0580664
0.0580664
0.0580664
0.0580664
0.0580663
0.0580663
0.0580663
0.0580663
0.0580663
0.0580663
0.0580663
0.0580663
0.0580663
0.0580663
0.0580663
0.0580663
0.0580663
0.0580663
0.0580663
0.0580663
0.0580663
0.0580663
0.0580663
0.0580663
0.0580663
0.0580662
0.0580662
0.0580662
0.0580662
0.0580662
0.0580662
0.0580662
0.0580662
0.0580662
0.0580662
0.0580662
0.0580662
0.0580662
0.0580662
0.0580662
0.0580662
0.0580662
0.0580661
0.0580661
0.0580661
0.0580661
0.0580661
0.0580661
0.0580661
0.0580661
0.0580661
0.0580661
0.0580661
0.0580661
0.0580661
0.0580661
0.058066
0.058066
0.058066
0.058066
0.058066
0.058066
0.058066
0.058066
0.058066
0.058066
0.058066
0.058066
0.0580659
0.0580659
0.0580659
0.0580659
0.0580659
0.0580659
0.0580659
0.0580659
0.0580659
0.0580659
0.0580658
0.0580658
0.0580658
0.0580658
0.0580658
0.0580658
0.0580658
0.0580658
0.0580658
0.0580657
0.0580657
0.0580657
0.0580657
0.0580657
0.0580657
0.0580657
0.0580656
0.0580656
0.0580656
0.0580656
0.0580656
0.0580656
0.0580656
0.0580655
0.0580655
0.0580655
0.0580655
0.0580655
0.0580655
0.0580654
0.0580654
0.0580654
0.0580654
0.0580654
0.0580653
0.0580653
0.0580653
0.0580653
0.0580653
0.0580652
0.0580652
0.0580652
0.0580652
0.0580651
0.0580651
0.0580651
0.0580651
0.058065
0.058065
0.058065
0.0580649
0.0580649
0.0580649
0.0580648
0.0580648
0.0580648
0.0580647
0.0580647
0.0580647
0.0580646
0.0580646
0.0580646
0.0580645
0.0580645
0.0580644
0.0580644
0.0580643
0.0580643
0.0580642
0.0580642
0.0580641
0.0580641
0.058064
0.058064
0.0580639
0.0580638
0.0580638
0.0580637
0.0580636
0.0580635
0.0580635
0.0580634
0.0580633
0.0580632
0.0580631
0.058063
0.0580629
0.0580628
0.0580627
0.0580625
0.0580624
0.0580623
0.0580621
0.058062
0.0580618
0.0580617
0.0580615
0.0580613
0.0580611
0.0580609
0.0580606
0.0580604
0.0580601
0.0580598
0.0580595
0.0580591
0.0580587
0.0580583
0.0580579
0.0580573
0.0580568
0.0580561
0.0580554
0.0580546
0.0580536
0.0580526
0.0580513
0.0580499
0.0580481
0.0580461
0.0580436
0.0580405
0.0580366
0.0580316
0.0580248
0.0580154
0.0580012
0.0579782
0.0579361
0.0578457
0.0576083
0.0568518
0.0540561
0.0413348
0.0201029
0.00974518
0.00476437
0.00234712
0.00116248
0.000577693
0.000287653
0.000143386
7.15094e-05
3.56679e-05
1.77893e-05
8.87054e-06
4.42213e-06
2.20393e-06
1.09814e-06
5.47058e-07
2.72491e-07
1.35739e-07
6.76239e-08
3.37171e-08
1.68258e-08
8.44796e-09
4.2785e-09
2.18341e-09
1.15152e-09
8.0643e-10
4.94902e-10
3.01762e-10
2.06574e-10
1.56587e-10
1.3819e-10
1.28077e-10
1.18488e-10
1.15146e-10
1.1243e-10
1.1115e-10
1.10159e-10
1.09738e-10
1.09533e-10
1.09364e-10
1.0929e-10
1.09235e-10
1.09206e-10
1.09192e-10
1.09179e-10
1.09175e-10
1.09172e-10
1.0917e-10
1.09169e-10
1.09169e-10
1.09169e-10
1.09169e-10
1.09169e-10
1.09169e-10
1.09169e-10
1.0917e-10
1.0917e-10
1.0917e-10
1.0917e-10
1.09171e-10
1.09171e-10
1.09172e-10
1.09172e-10
1.09172e-10
1.09173e-10
1.09173e-10
1.09173e-10
1.09174e-10
1.09174e-10
1.09174e-10
1.09175e-10
1.09175e-10
1.09175e-10
1.09176e-10
1.09176e-10
1.09176e-10
1.09177e-10
1.09177e-10
1.09177e-10
1.09178e-10
1.09178e-10
1.09178e-10
1.09179e-10
1.09179e-10
1.09179e-10
1.0918e-10
1.0918e-10
1.0918e-10
1.09181e-10
1.09181e-10
1.09181e-10
1.09181e-10
1.09182e-10
1.09182e-10
1.09183e-10
1.09183e-10
1.09183e-10
1.09184e-10
1.09184e-10
1.09184e-10
1.09184e-10
1.09185e-10
1.09185e-10
1.09185e-10
1.09186e-10
1.09186e-10
1.09187e-10
1.09187e-10
1.09187e-10
1.09187e-10
1.09188e-10
1.09188e-10
1.09188e-10
1.09189e-10
1.09189e-10
1.09189e-10
1.0919e-10
1.0919e-10
1.0919e-10
1.09191e-10
1.09191e-10
1.09191e-10
1.09192e-10
1.09192e-10
1.09192e-10
1.09193e-10
1.09193e-10
1.09194e-10
1.09194e-10
1.09194e-10
1.09195e-10
1.09195e-10
1.09195e-10
1.09196e-10
1.09196e-10
1.09196e-10
1.09197e-10
1.09197e-10
1.09197e-10
1.09198e-10
1.09198e-10
1.09198e-10
1.09198e-10
1.09199e-10
1.09199e-10
1.092e-10
1.092e-10
1.092e-10
1.09201e-10
1.09201e-10
1.09201e-10
1.09201e-10
1.09202e-10
1.09202e-10
1.09202e-10
1.09203e-10
1.09203e-10
1.09204e-10
1.09204e-10
1.09204e-10
1.09204e-10
1.09205e-10
1.09205e-10
1.09205e-10
1.09206e-10
1.09206e-10
1.09206e-10
1.09207e-10
1.09207e-10
1.09207e-10
1.09208e-10
1.09208e-10
1.09208e-10
1.09209e-10
1.09209e-10
1.09209e-10
1.0921e-10
1.0921e-10
1.0921e-10
1.09211e-10
1.09211e-10
1.09212e-10
1.09212e-10
1.09212e-10
1.09213e-10
1.09213e-10
1.09214e-10
1.09214e-10
1.09214e-10
1.09215e-10
1.09215e-10
1.09215e-10
1.09216e-10
1.09216e-10
1.09216e-10
1.09217e-10
1.09217e-10
1.09217e-10
1.09218e-10
1.09218e-10
1.09218e-10
1.09219e-10
1.09219e-10
1.09219e-10
1.0922e-10
1.0922e-10
1.0922e-10
1.09221e-10
1.09221e-10
1.09221e-10
1.09222e-10
1.09222e-10
1.09222e-10
1.09223e-10
1.09223e-10
1.09223e-10
1.09224e-10
1.09224e-10
1.09224e-10
1.09225e-10
1.09225e-10
1.09225e-10
1.09226e-10
1.09226e-10
1.09226e-10
1.09227e-10
1.09227e-10
1.09227e-10
1.09228e-10
1.09228e-10
1.09229e-10
1.09229e-10
1.09229e-10
1.0923e-10
1.0923e-10
1.0923e-10
1.09231e-10
1.09231e-10
1.09231e-10
1.09232e-10
1.09232e-10
1.09232e-10
1.09233e-10
1.09233e-10
1.09234e-10
1.09234e-10
1.09234e-10
1.09235e-10
1.09235e-10
1.09235e-10
1.09236e-10
1.09236e-10
1.09236e-10
1.09237e-10
1.09237e-10
1.09237e-10
1.09238e-10
1.09238e-10
1.09238e-10
1.09239e-10
1.09239e-10
1.09239e-10
1.0924e-10
1.0924e-10
1.0924e-10
1.09241e-10
1.09241e-10
1.09241e-10
1.09242e-10
1.09242e-10
1.09243e-10
1.09243e-10
1.09243e-10
1.09244e-10
1.09244e-10
1.09244e-10
1.09245e-10
1.09245e-10
1.09245e-10
1.09246e-10
1.09246e-10
1.09246e-10
1.09247e-10
1.09247e-10
1.09247e-10
1.09248e-10
1.09248e-10
1.09249e-10
1.09249e-10
1.09249e-10
1.0925e-10
1.0925e-10
1.0925e-10
1.09251e-10
1.09251e-10
1.09251e-10
1.09252e-10
1.09252e-10
1.09252e-10
1.09253e-10
1.09253e-10
1.09253e-10
1.09254e-10
1.09254e-10
1.09254e-10
1.09255e-10
1.09255e-10
1.09256e-10
1.09256e-10
1.09256e-10
1.09257e-10
1.09257e-10
1.09257e-10
1.09258e-10
1.09258e-10
1.09258e-10
1.09259e-10
1.09259e-10
1.09259e-10
1.0926e-10
1.0926e-10
1.0926e-10
1.09261e-10
1.09261e-10
1.09261e-10
1.09262e-10
1.09262e-10
1.09263e-10
1.09263e-10
1.09264e-10
1.09264e-10
1.09264e-10
1.09265e-10
1.09265e-10
1.09265e-10
1.09266e-10
1.09266e-10
1.09266e-10
1.09267e-10
1.09267e-10
1.09267e-10
1.09268e-10
1.09268e-10
1.09268e-10
1.09269e-10
1.09269e-10
1.09269e-10
1.0927e-10
1.0927e-10
1.09271e-10
1.09271e-10
1.09271e-10
1.09272e-10
1.09272e-10
1.09272e-10
1.09273e-10
1.09273e-10
1.09273e-10
1.09274e-10
1.09274e-10
1.09274e-10
1.09275e-10
1.09275e-10
1.09276e-10
1.09276e-10
1.09276e-10
1.09277e-10
1.09277e-10
1.09277e-10
1.09278e-10
1.09278e-10
1.09278e-10
1.09279e-10
1.09279e-10
1.09279e-10
1.0928e-10
1.0928e-10
1.0928e-10
1.09281e-10
1.09281e-10
1.09282e-10
1.09282e-10
1.09282e-10
1.09283e-10
1.09283e-10
1.09283e-10
1.09284e-10
1.09284e-10
1.09284e-10
1.09285e-10
1.09285e-10
1.09285e-10
1.09286e-10
1.09286e-10
1.09287e-10
1.09287e-10
1.09287e-10
1.09288e-10
1.09288e-10
1.09288e-10
1.09289e-10
1.09289e-10
1.09289e-10
1.0929e-10
1.0929e-10
1.0929e-10
1.09291e-10
1.09291e-10
1.09292e-10
1.09292e-10
1.09292e-10
1.09293e-10
1.09293e-10
1.09293e-10
1.09294e-10
1.09294e-10
1.09294e-10
1.09295e-10
1.09295e-10
1.09296e-10
1.09296e-10
1.09296e-10
1.09297e-10
1.09297e-10
1.09297e-10
1.09298e-10
1.09298e-10
1.09298e-10
1.09299e-10
1.09299e-10
1.09299e-10
1.093e-10
1.093e-10
1.09301e-10
1.09301e-10
1.09301e-10
1.09302e-10
1.09302e-10
1.09302e-10
1.09303e-10
1.09303e-10
1.09303e-10
1.09304e-10
1.09304e-10
1.09304e-10
1.09305e-10
1.09305e-10
1.09305e-10
1.09306e-10
1.09306e-10
1.09307e-10
1.09307e-10
1.09307e-10
1.09308e-10
1.09308e-10
1.09309e-10
1.09309e-10
1.09309e-10
1.0931e-10
1.0931e-10
1.0931e-10
1.09311e-10
1.09311e-10
1.09311e-10
1.09312e-10
1.09312e-10
1.09313e-10
1.09313e-10
1.09313e-10
1.09314e-10
1.09314e-10
1.09315e-10
1.09315e-10
1.09315e-10
1.09316e-10
1.09316e-10
)
;

boundaryField
{
    fixedWall
    {
        type            zeroGradient;
    }
    outlet
    {
        type            inletOutlet;
        inletValue      uniform 0;
        value           uniform 1.09316e-10;
    }
    defaultFaces
    {
        type            empty;
    }
}


// ************************************************************************* //
