/*--------------------------------*- C++ -*----------------------------------*\
| =========                 |                                                 |
| \\      /  F ield         | OpenFOAM: The Open Source CFD Toolbox           |
|  \\    /   O peration     | Version:  2406                                  |
|   \\  /    A nd           | Website:  www.openfoam.com                      |
|    \\/     M anipulation  |                                                 |
\*---------------------------------------------------------------------------*/
FoamFile
{
    version     2.0;
    format      ascii;
    arch        "LSB;label=32;scalar=64";
    class       volScalarField;
    location    "3.3";
    object      O2;
}
// * * * * * * * * * * * * * * * * * * * * * * * * * * * * * * * * * * * * * //

dimensions      [0 0 0 0 0 0 0];

internalField   nonuniform List<scalar> 
1000
(
1.62283e-06
1.61906e-06
1.61254e-06
1.60387e-06
1.5934e-06
1.58139e-06
1.56803e-06
1.55345e-06
1.53776e-06
1.52107e-06
1.50344e-06
1.48496e-06
1.46569e-06
1.44568e-06
1.425e-06
1.40371e-06
1.38187e-06
1.35954e-06
1.33679e-06
1.31369e-06
1.2903e-06
1.2667e-06
1.24297e-06
1.21918e-06
1.19539e-06
1.1717e-06
1.14818e-06
1.12488e-06
1.1019e-06
1.07928e-06
1.0571e-06
1.0354e-06
1.01424e-06
9.93657e-07
9.73702e-07
9.54402e-07
9.35787e-07
9.17878e-07
9.00694e-07
8.84244e-07
8.68538e-07
8.53576e-07
8.39358e-07
8.25878e-07
8.13128e-07
8.01096e-07
7.89767e-07
7.79126e-07
7.69154e-07
7.59831e-07
7.51137e-07
7.43049e-07
7.35544e-07
7.286e-07
7.22193e-07
7.16299e-07
7.10895e-07
7.05957e-07
7.01463e-07
6.9739e-07
6.93715e-07
6.90417e-07
6.87475e-07
6.84869e-07
6.8258e-07
6.80588e-07
6.78875e-07
6.77425e-07
6.7622e-07
6.75246e-07
6.74486e-07
6.73927e-07
6.73556e-07
6.73361e-07
6.73326e-07
6.73442e-07
6.73698e-07
6.74084e-07
6.74591e-07
6.7521e-07
6.75933e-07
6.76752e-07
6.77659e-07
6.78647e-07
6.79712e-07
6.80846e-07
6.82044e-07
6.83302e-07
6.84614e-07
6.85976e-07
6.87384e-07
6.88835e-07
6.90325e-07
6.91852e-07
6.93411e-07
6.95001e-07
6.9662e-07
6.98264e-07
6.99933e-07
7.01624e-07
7.03335e-07
7.05066e-07
7.06814e-07
7.08579e-07
7.10359e-07
7.12155e-07
7.13963e-07
7.15785e-07
7.17619e-07
7.19464e-07
7.21321e-07
7.23188e-07
7.25066e-07
7.26953e-07
7.2885e-07
7.30749e-07
7.32648e-07
7.34577e-07
7.36515e-07
7.3846e-07
7.40414e-07
7.42375e-07
7.44345e-07
7.46323e-07
7.48309e-07
7.50304e-07
7.52307e-07
7.5432e-07
7.5634e-07
7.5837e-07
7.60409e-07
7.62457e-07
7.64514e-07
7.66581e-07
7.68657e-07
7.70743e-07
7.72838e-07
7.74944e-07
7.77059e-07
7.79185e-07
7.81321e-07
7.83467e-07
7.85624e-07
7.87792e-07
7.89971e-07
7.9216e-07
7.94361e-07
7.96574e-07
7.98797e-07
8.01033e-07
8.0328e-07
8.05539e-07
8.0781e-07
8.10094e-07
8.1239e-07
8.14698e-07
8.17019e-07
8.19353e-07
8.21699e-07
8.24059e-07
8.26432e-07
8.28819e-07
8.31219e-07
8.33632e-07
8.3606e-07
8.38501e-07
8.40957e-07
8.43427e-07
8.45911e-07
8.4841e-07
8.50924e-07
8.53452e-07
8.55995e-07
8.58554e-07
8.61128e-07
8.63717e-07
8.66322e-07
8.68942e-07
8.71579e-07
8.74231e-07
8.769e-07
8.79585e-07
8.82286e-07
8.85004e-07
8.87739e-07
8.90491e-07
8.9326e-07
8.96046e-07
8.9885e-07
9.01671e-07
9.0451e-07
9.07367e-07
9.10242e-07
9.13135e-07
9.16047e-07
9.18977e-07
9.21926e-07
9.24894e-07
9.27881e-07
9.30887e-07
9.33913e-07
9.36958e-07
9.40023e-07
9.43108e-07
9.46213e-07
9.49338e-07
9.52483e-07
9.55649e-07
9.58836e-07
9.62044e-07
9.65273e-07
9.68523e-07
9.71795e-07
9.75088e-07
9.78403e-07
9.8174e-07
9.851e-07
9.88482e-07
9.91886e-07
9.95313e-07
9.98764e-07
1.00224e-06
1.00573e-06
1.00925e-06
1.0128e-06
1.01637e-06
1.01996e-06
1.02358e-06
1.02722e-06
1.03089e-06
1.03458e-06
1.0383e-06
1.04205e-06
1.04582e-06
1.04961e-06
1.05344e-06
1.05729e-06
1.06117e-06
1.06507e-06
1.06901e-06
1.07297e-06
1.07696e-06
1.08098e-06
1.08503e-06
1.08911e-06
1.09322e-06
1.09736e-06
1.10153e-06
1.10574e-06
1.10997e-06
1.11423e-06
1.11853e-06
1.12286e-06
1.12723e-06
1.13162e-06
1.13605e-06
1.14052e-06
1.14502e-06
1.14955e-06
1.15412e-06
1.15873e-06
1.16337e-06
1.16804e-06
1.17276e-06
1.17751e-06
1.1823e-06
1.18712e-06
1.19199e-06
1.19689e-06
1.20183e-06
1.20682e-06
1.21184e-06
1.2169e-06
1.22201e-06
1.22715e-06
1.23234e-06
1.23757e-06
1.24284e-06
1.24816e-06
1.25352e-06
1.25892e-06
1.26437e-06
1.26987e-06
1.27541e-06
1.281e-06
1.28664e-06
1.29232e-06
1.29806e-06
1.30384e-06
1.30967e-06
1.31556e-06
1.3215e-06
1.32749e-06
1.3335e-06
1.33953e-06
1.34569e-06
1.35191e-06
1.35818e-06
1.3645e-06
1.37089e-06
1.37733e-06
1.38384e-06
1.39041e-06
1.39704e-06
1.40373e-06
1.41048e-06
1.41731e-06
1.42419e-06
1.43115e-06
1.43817e-06
1.44527e-06
1.45244e-06
1.45967e-06
1.46698e-06
1.47437e-06
1.48183e-06
1.48937e-06
1.49699e-06
1.50468e-06
1.51246e-06
1.52032e-06
1.52826e-06
1.53629e-06
1.5444e-06
1.5526e-06
1.56089e-06
1.56927e-06
1.57774e-06
1.58631e-06
1.59497e-06
1.60372e-06
1.61257e-06
1.62152e-06
1.63057e-06
1.63972e-06
1.64898e-06
1.65834e-06
1.66781e-06
1.67738e-06
1.68707e-06
1.69687e-06
1.70677e-06
1.7168e-06
1.72694e-06
1.7372e-06
1.74758e-06
1.75808e-06
1.7687e-06
1.77946e-06
1.79033e-06
1.80134e-06
1.81248e-06
1.82376e-06
1.83517e-06
1.84672e-06
1.85841e-06
1.87024e-06
1.88222e-06
1.89435e-06
1.90663e-06
1.91907e-06
1.93166e-06
1.94442e-06
1.95733e-06
1.97042e-06
1.98368e-06
1.99711e-06
2.01072e-06
2.02451e-06
2.03849e-06
2.05266e-06
2.06702e-06
2.08158e-06
2.09635e-06
2.11132e-06
2.12651e-06
2.14191e-06
2.15754e-06
2.17339e-06
2.18948e-06
2.20581e-06
2.22237e-06
2.23919e-06
2.25627e-06
2.2736e-06
2.2912e-06
2.30908e-06
2.32724e-06
2.34568e-06
2.36442e-06
2.38345e-06
2.4028e-06
2.42246e-06
2.44245e-06
2.46276e-06
2.48342e-06
2.50443e-06
2.52579e-06
2.54752e-06
2.56963e-06
2.59212e-06
2.61501e-06
2.6383e-06
2.66201e-06
2.68615e-06
2.71072e-06
2.73575e-06
2.76124e-06
2.78721e-06
2.81367e-06
2.84063e-06
2.86813e-06
2.89599e-06
2.92426e-06
2.9534e-06
2.98311e-06
3.01341e-06
3.04433e-06
3.07589e-06
3.10811e-06
3.14101e-06
3.17463e-06
3.20898e-06
3.2441e-06
3.28002e-06
3.31676e-06
3.35436e-06
3.39285e-06
3.43227e-06
3.47264e-06
3.514e-06
3.55639e-06
3.59984e-06
3.64439e-06
3.69007e-06
3.73691e-06
3.78497e-06
3.83426e-06
3.88483e-06
3.93672e-06
3.98996e-06
4.0446e-06
4.10069e-06
4.15826e-06
4.21737e-06
4.27806e-06
4.3404e-06
4.40445e-06
4.47028e-06
4.53797e-06
4.60735e-06
4.67822e-06
4.75201e-06
4.82801e-06
4.90637e-06
4.98721e-06
5.07068e-06
5.15694e-06
5.24615e-06
5.33848e-06
5.43411e-06
5.53325e-06
5.63611e-06
5.74289e-06
5.85384e-06
5.96921e-06
6.08925e-06
6.21424e-06
6.34448e-06
6.48027e-06
6.62195e-06
6.76988e-06
6.92446e-06
7.08596e-06
7.25526e-06
7.43306e-06
7.61872e-06
7.81386e-06
8.01891e-06
8.23467e-06
8.46201e-06
8.70186e-06
8.95526e-06
9.22338e-06
9.50752e-06
9.80915e-06
1.01299e-05
1.04718e-05
1.08368e-05
1.12274e-05
1.16467e-05
1.20928e-05
1.25796e-05
1.31064e-05
1.36786e-05
1.43025e-05
1.49855e-05
1.57363e-05
1.65655e-05
1.74851e-05
1.85099e-05
1.96574e-05
2.0949e-05
2.24111e-05
2.40767e-05
2.59877e-05
2.81983e-05
3.07801e-05
3.38301e-05
3.7482e-05
4.1922e-05
4.74135e-05
5.43384e-05
6.3285e-05
7.52407e-05
9.20096e-05
0.000117119
0.000158037
0.000232794
0.000393351
0.000815076
0.00215869
0.00712456
0.0297201
0.0674321
0.0858296
0.0946765
0.0989701
0.101074
0.102113
0.102628
0.102884
0.103012
0.103076
0.103107
0.103123
0.103131
0.103135
0.103137
0.103138
0.103139
0.103139
0.103139
0.103139
0.103139
0.103139
0.103139
0.103139
0.103139
0.103139
0.103139
0.103139
0.103139
0.103139
0.103139
0.103139
0.103139
0.103139
0.103139
0.103139
0.103139
0.103139
0.103139
0.103139
0.103139
0.103139
0.103139
0.103139
0.103139
0.103139
0.103139
0.103139
0.103139
0.103139
0.103139
0.103139
0.103139
0.103139
0.103139
0.103139
0.103139
0.103139
0.103139
0.103139
0.103139
0.103139
0.103139
0.103139
0.103139
0.103139
0.103139
0.103139
0.103139
0.103139
0.103139
0.103139
0.103139
0.103139
0.103139
0.103139
0.103139
0.103139
0.103139
0.103139
0.103139
0.103139
0.103139
0.103139
0.103139
0.103139
0.103139
0.103139
0.103139
0.103139
0.103139
0.103139
0.103139
0.103139
0.103139
0.103139
0.103139
0.103139
0.103139
0.103139
0.103139
0.103139
0.103139
0.103139
0.103139
0.103139
0.103139
0.103139
0.103139
0.103139
0.103139
0.103139
0.103139
0.103139
0.103139
0.103139
0.103139
0.103139
0.103139
0.103139
0.103139
0.103139
0.103139
0.103139
0.103139
0.103139
0.103139
0.103139
0.103139
0.103139
0.103139
0.103139
0.103139
0.103139
0.103139
0.103139
0.103139
0.103139
0.103139
0.103139
0.103139
0.103139
0.103139
0.103139
0.103139
0.103139
0.103139
0.103139
0.103139
0.103139
0.103139
0.103139
0.103139
0.103139
0.103139
0.103139
0.103139
0.103139
0.103139
0.103139
0.103139
0.103139
0.103139
0.103139
0.103139
0.103139
0.103139
0.103139
0.103139
0.103139
0.103139
0.103139
0.103139
0.103139
0.103139
0.103139
0.103139
0.103139
0.103139
0.103139
0.103139
0.103139
0.103139
0.103139
0.103139
0.103139
0.103139
0.103139
0.103139
0.103139
0.103139
0.103139
0.103139
0.103139
0.103139
0.103139
0.103139
0.103139
0.103139
0.103139
0.103139
0.103139
0.103139
0.103139
0.103139
0.103139
0.103139
0.103139
0.103139
0.103139
0.103139
0.103139
0.103139
0.103139
0.103139
0.103139
0.103139
0.103139
0.103139
0.103139
0.103139
0.103139
0.103139
0.103139
0.103139
0.103139
0.103139
0.103139
0.103139
0.103139
0.103139
0.103139
0.103139
0.103139
0.103139
0.103139
0.103139
0.103139
0.103139
0.103139
0.103139
0.103139
0.103139
0.103139
0.103139
0.103139
0.103139
0.103139
0.103139
0.103139
0.103139
0.103139
0.103139
0.103139
0.103139
0.103139
0.103139
0.103139
0.103139
0.103139
0.103139
0.103139
0.103139
0.103139
0.103139
0.103139
0.103139
0.103139
0.103139
0.103139
0.103139
0.103139
0.103139
0.103139
0.103139
0.103139
0.103139
0.103139
0.103139
0.103139
0.103139
0.103139
0.103139
0.103139
0.103139
0.103139
0.103139
0.103139
0.103139
0.103139
0.103139
0.103139
0.103139
0.103139
0.103139
0.103139
0.103139
0.103139
0.103139
0.103139
0.103139
0.103139
0.103139
0.103139
0.103139
0.103139
0.103139
0.103139
0.103139
0.103139
0.103139
0.103139
0.103139
0.103139
0.103139
0.103139
0.103139
0.103139
0.103139
0.103139
0.103139
0.103139
0.103139
0.103139
0.103139
0.103139
0.103139
0.103139
0.103139
0.103139
0.103139
0.103139
0.103139
0.103139
0.103139
0.103139
0.103139
0.103139
0.103139
0.103139
0.103139
0.103139
0.103139
0.103139
0.103139
0.103139
0.103139
0.103139
0.103139
0.103139
0.103139
0.103139
0.103139
0.103139
0.103139
0.103139
0.103139
0.103139
0.103139
0.103139
0.103139
0.103139
0.103139
0.103139
0.103139
0.103139
0.103139
0.103139
0.103139
0.103139
0.103139
0.103139
0.103139
0.103139
0.103139
0.103139
0.103139
0.103139
0.103139
0.103139
0.103139
0.103139
0.103139
0.103139
0.103139
0.103139
0.103139
0.103139
0.103139
0.103139
0.103139
0.103139
0.103139
0.103139
0.103139
0.103139
0.103139
0.103139
0.103139
0.103139
0.103139
0.103139
0.103139
0.103139
0.103139
0.103139
0.103139
0.103139
0.103139
0.103139
0.103139
0.103139
0.103139
0.103139
0.103139
0.103139
0.103139
0.103139
0.103139
0.103139
0.103139
0.103139
0.103139
0.103139
0.103139
0.103139
0.103139
0.103139
0.103139
0.103139
0.103139
0.103139
0.103139
0.103139
0.103139
0.103139
0.103139
0.103139
0.103139
0.103139
0.103139
0.103139
0.103139
0.103139
0.103139
0.103139
0.103139
0.103139
0.103139
0.103139
0.103139
0.103139
0.103139
0.103139
0.103139
0.103139
0.103139
0.103139
0.103139
0.103139
0.103139
0.103139
0.103139
0.103139
0.103139
0.103139
0.103139
0.103139
0.103139
0.103139
0.103139
0.103139
0.103139
0.103139
0.103139
0.103139
)
;

boundaryField
{
    fixedWall
    {
        type            zeroGradient;
    }
    outlet
    {
        type            inletOutlet;
        inletValue      uniform 0;
        value           uniform 0.103139;
    }
    defaultFaces
    {
        type            empty;
    }
}


// ************************************************************************* //
