/*--------------------------------*- C++ -*----------------------------------*\
| =========                 |                                                 |
| \\      /  F ield         | OpenFOAM: The Open Source CFD Toolbox           |
|  \\    /   O peration     | Version:  2406                                  |
|   \\  /    A nd           | Website:  www.openfoam.com                      |
|    \\/     M anipulation  |                                                 |
\*---------------------------------------------------------------------------*/
FoamFile
{
    version     2.0;
    format      ascii;
    arch        "LSB;label=32;scalar=64";
    class       surfaceScalarField;
    location    "3.3";
    object      phi;
}
// * * * * * * * * * * * * * * * * * * * * * * * * * * * * * * * * * * * * * //

dimensions      [1 0 -1 0 0 0 0];

oriented        oriented;

internalField   nonuniform List<scalar> 
999
(
-9.80722e-08
-2.95804e-07
-5.36969e-07
-7.96881e-07
-1.06352e-06
-1.33061e-06
-1.59477e-06
-1.85412e-06
-2.10763e-06
-2.35477e-06
-2.5953e-06
-2.82912e-06
-3.05627e-06
-3.27684e-06
-3.49093e-06
-3.69871e-06
-3.90031e-06
-4.09589e-06
-4.28559e-06
-4.46958e-06
-4.64799e-06
-4.82096e-06
-4.98862e-06
-5.1511e-06
-5.30853e-06
-5.46102e-06
-5.60869e-06
-5.75164e-06
-5.88997e-06
-6.02379e-06
-6.1532e-06
-6.27828e-06
-6.39915e-06
-6.51587e-06
-6.62855e-06
-6.73727e-06
-6.84212e-06
-6.94317e-06
-7.04052e-06
-7.13424e-06
-7.22442e-06
-7.31113e-06
-7.39446e-06
-7.47449e-06
-7.5513e-06
-7.62496e-06
-7.69555e-06
-7.76315e-06
-7.82785e-06
-7.88971e-06
-7.94882e-06
-8.00525e-06
-8.05908e-06
-8.11038e-06
-8.15924e-06
-8.20572e-06
-8.24991e-06
-8.29187e-06
-8.33168e-06
-8.36942e-06
-8.40516e-06
-8.43896e-06
-8.47091e-06
-8.50106e-06
-8.52949e-06
-8.55627e-06
-8.58147e-06
-8.60515e-06
-8.62738e-06
-8.64822e-06
-8.66773e-06
-8.6859e-06
-8.70264e-06
-8.71834e-06
-8.73317e-06
-8.74697e-06
-8.75977e-06
-8.77161e-06
-8.78254e-06
-8.79261e-06
-8.80189e-06
-8.81042e-06
-8.81823e-06
-8.82538e-06
-8.8319e-06
-8.83783e-06
-8.8432e-06
-8.84805e-06
-8.85242e-06
-8.85634e-06
-8.85982e-06
-8.86292e-06
-8.86564e-06
-8.86801e-06
-8.87007e-06
-8.87183e-06
-8.87332e-06
-8.87455e-06
-8.87554e-06
-8.87632e-06
-8.8769e-06
-8.87729e-06
-8.87751e-06
-8.87757e-06
-8.87749e-06
-8.87728e-06
-8.87695e-06
-8.87651e-06
-8.87597e-06
-8.87534e-06
-8.87462e-06
-8.87383e-06
-8.87297e-06
-8.87205e-06
-8.87107e-06
-8.87005e-06
-8.86897e-06
-8.86786e-06
-8.86671e-06
-8.86553e-06
-8.86432e-06
-8.86309e-06
-8.86183e-06
-8.86055e-06
-8.85925e-06
-8.85794e-06
-8.85662e-06
-8.85528e-06
-8.85394e-06
-8.85258e-06
-8.85122e-06
-8.84985e-06
-8.84848e-06
-8.8471e-06
-8.84572e-06
-8.84434e-06
-8.84295e-06
-8.84156e-06
-8.84018e-06
-8.83879e-06
-8.8374e-06
-8.83601e-06
-8.83462e-06
-8.83323e-06
-8.83185e-06
-8.83046e-06
-8.82908e-06
-8.82769e-06
-8.82631e-06
-8.82493e-06
-8.82355e-06
-8.82217e-06
-8.82079e-06
-8.81941e-06
-8.81804e-06
-8.81666e-06
-8.81529e-06
-8.81392e-06
-8.81255e-06
-8.81118e-06
-8.80981e-06
-8.80844e-06
-8.80707e-06
-8.8057e-06
-8.80433e-06
-8.80297e-06
-8.8016e-06
-8.80024e-06
-8.79887e-06
-8.79751e-06
-8.79614e-06
-8.79478e-06
-8.79341e-06
-8.79205e-06
-8.79069e-06
-8.78932e-06
-8.78796e-06
-8.7866e-06
-8.78523e-06
-8.78386e-06
-8.7825e-06
-8.78113e-06
-8.77977e-06
-8.7784e-06
-8.77703e-06
-8.77566e-06
-8.7743e-06
-8.77293e-06
-8.77156e-06
-8.77018e-06
-8.76881e-06
-8.76744e-06
-8.76606e-06
-8.76469e-06
-8.76331e-06
-8.76194e-06
-8.76056e-06
-8.75918e-06
-8.75779e-06
-8.75641e-06
-8.75503e-06
-8.75364e-06
-8.75225e-06
-8.75086e-06
-8.74947e-06
-8.74808e-06
-8.74669e-06
-8.74529e-06
-8.74389e-06
-8.74249e-06
-8.74109e-06
-8.73969e-06
-8.73828e-06
-8.73687e-06
-8.73546e-06
-8.73405e-06
-8.73264e-06
-8.73123e-06
-8.72981e-06
-8.72839e-06
-8.72697e-06
-8.72555e-06
-8.72412e-06
-8.7227e-06
-8.72127e-06
-8.71984e-06
-8.71841e-06
-8.71697e-06
-8.71554e-06
-8.7141e-06
-8.71266e-06
-8.71122e-06
-8.70978e-06
-8.70834e-06
-8.7069e-06
-8.70545e-06
-8.704e-06
-8.70255e-06
-8.7011e-06
-8.69965e-06
-8.69819e-06
-8.69674e-06
-8.69528e-06
-8.69382e-06
-8.69236e-06
-8.6909e-06
-8.68943e-06
-8.68797e-06
-8.6865e-06
-8.68503e-06
-8.68356e-06
-8.68208e-06
-8.68061e-06
-8.67913e-06
-8.67765e-06
-8.67617e-06
-8.67468e-06
-8.6732e-06
-8.67171e-06
-8.67022e-06
-8.66872e-06
-8.66722e-06
-8.66572e-06
-8.66422e-06
-8.66272e-06
-8.66121e-06
-8.6597e-06
-8.65819e-06
-8.65667e-06
-8.65515e-06
-8.65363e-06
-8.65211e-06
-8.65058e-06
-8.64905e-06
-8.64752e-06
-8.64599e-06
-8.64445e-06
-8.64291e-06
-8.64137e-06
-8.63983e-06
-8.63828e-06
-8.63674e-06
-8.63519e-06
-8.63364e-06
-8.63209e-06
-8.63054e-06
-8.62898e-06
-8.62743e-06
-8.62587e-06
-8.62431e-06
-8.62275e-06
-8.62119e-06
-8.61963e-06
-8.61807e-06
-8.6165e-06
-8.61494e-06
-8.61338e-06
-8.61181e-06
-8.61024e-06
-8.60867e-06
-8.6071e-06
-8.60554e-06
-8.60396e-06
-8.60239e-06
-8.60082e-06
-8.59925e-06
-8.59767e-06
-8.5961e-06
-8.59452e-06
-8.59294e-06
-8.59136e-06
-8.58978e-06
-8.5882e-06
-8.58662e-06
-8.58503e-06
-8.58345e-06
-8.58186e-06
-8.58027e-06
-8.57868e-06
-8.57709e-06
-8.5755e-06
-8.57391e-06
-8.57231e-06
-8.57071e-06
-8.56912e-06
-8.56752e-06
-8.56591e-06
-8.56431e-06
-8.5627e-06
-8.5611e-06
-8.55949e-06
-8.55788e-06
-8.55626e-06
-8.55464e-06
-8.55303e-06
-8.5514e-06
-8.54978e-06
-8.54815e-06
-8.54652e-06
-8.54489e-06
-8.54325e-06
-8.54161e-06
-8.53997e-06
-8.53832e-06
-8.53667e-06
-8.53501e-06
-8.53335e-06
-8.53169e-06
-8.53002e-06
-8.52835e-06
-8.52668e-06
-8.525e-06
-8.52331e-06
-8.52163e-06
-8.51994e-06
-8.51825e-06
-8.51655e-06
-8.51486e-06
-8.51316e-06
-8.51146e-06
-8.50975e-06
-8.50805e-06
-8.50634e-06
-8.50463e-06
-8.50293e-06
-8.50122e-06
-8.49951e-06
-8.4978e-06
-8.49609e-06
-8.49438e-06
-8.49266e-06
-8.49095e-06
-8.48924e-06
-8.48753e-06
-8.48582e-06
-8.4841e-06
-8.48239e-06
-8.48067e-06
-8.47895e-06
-8.47724e-06
-8.47551e-06
-8.47379e-06
-8.47207e-06
-8.47034e-06
-8.46862e-06
-8.46689e-06
-8.46516e-06
-8.46343e-06
-8.46169e-06
-8.45996e-06
-8.45822e-06
-8.45649e-06
-8.45475e-06
-8.45301e-06
-8.45127e-06
-8.44953e-06
-8.44779e-06
-8.44605e-06
-8.4443e-06
-8.44256e-06
-8.44081e-06
-8.43906e-06
-8.43732e-06
-8.43557e-06
-8.43381e-06
-8.43206e-06
-8.4303e-06
-8.42855e-06
-8.42679e-06
-8.42502e-06
-8.42326e-06
-8.4215e-06
-8.41973e-06
-8.41797e-06
-8.41621e-06
-8.41445e-06
-8.4127e-06
-8.41095e-06
-8.40921e-06
-8.40748e-06
-8.40576e-06
-8.40405e-06
-8.40236e-06
-8.40068e-06
-8.39901e-06
-8.39735e-06
-8.39571e-06
-8.39408e-06
-8.39245e-06
-8.39084e-06
-8.38922e-06
-8.3876e-06
-8.38598e-06
-8.38434e-06
-8.38269e-06
-8.38101e-06
-8.3793e-06
-8.37755e-06
-8.37576e-06
-8.37391e-06
-8.37201e-06
-8.37004e-06
-8.36801e-06
-8.36592e-06
-8.36375e-06
-8.36152e-06
-8.35922e-06
-8.35686e-06
-8.35445e-06
-8.35199e-06
-8.34949e-06
-8.34697e-06
-8.34443e-06
-8.34188e-06
-8.33935e-06
-8.33684e-06
-8.33437e-06
-8.33194e-06
-8.32957e-06
-8.32726e-06
-8.32503e-06
-8.32286e-06
-8.32077e-06
-8.31875e-06
-8.31679e-06
-8.31488e-06
-8.31301e-06
-8.31116e-06
-8.30931e-06
-8.30744e-06
-8.30553e-06
-8.30356e-06
-8.30151e-06
-8.29936e-06
-8.2971e-06
-8.29473e-06
-8.29225e-06
-8.28965e-06
-8.28695e-06
-8.28417e-06
-8.28133e-06
-8.27845e-06
-8.27555e-06
-8.27267e-06
-8.26982e-06
-8.26703e-06
-8.2643e-06
-8.26163e-06
-8.25903e-06
-8.25649e-06
-8.25399e-06
-8.25152e-06
-8.24908e-06
-8.24666e-06
-8.24427e-06
-8.24192e-06
-8.23961e-06
-8.23732e-06
-8.23503e-06
-8.23264e-06
-8.23003e-06
-8.227e-06
-8.22332e-06
-8.21873e-06
-8.21292e-06
-8.20562e-06
-8.19655e-06
-8.18542e-06
-8.17196e-06
-8.15579e-06
-8.13637e-06
-8.1128e-06
-8.08353e-06
-8.0462e-06
-7.99783e-06
-7.93567e-06
-7.85707e-06
-7.75396e-06
-7.59897e-06
-7.34317e-06
-6.94689e-06
-6.13594e-06
-3.30837e-07
0.000171698
0.000367233
0.00055324
0.000700904
0.000801737
0.00086383
0.000899732
0.000919758
0.00093071
0.000936638
0.000939829
0.000941543
0.000942463
0.000942958
0.000943226
0.000943371
0.000943452
0.000943498
0.000943526
0.000943543
0.000943556
0.000943565
0.000943573
0.00094358
0.000943587
0.000943594
0.0009436
0.000943606
0.000943613
0.000943619
0.000943625
0.000943631
0.000943637
0.000943643
0.000943649
0.000943655
0.000943661
0.000943667
0.000943673
0.000943679
0.000943685
0.000943691
0.000943697
0.000943703
0.000943709
0.000943715
0.00094372
0.000943726
0.000943732
0.000943738
0.000943743
0.000943749
0.000943755
0.00094376
0.000943766
0.000943772
0.000943777
0.000943783
0.000943789
0.000943794
0.0009438
0.000943805
0.000943811
0.000943816
0.000943821
0.000943827
0.000943832
0.000943838
0.000943843
0.000943848
0.000943854
0.000943859
0.000943864
0.00094387
0.000943875
0.00094388
0.000943885
0.00094389
0.000943896
0.000943901
0.000943906
0.000943911
0.000943916
0.000943921
0.000943926
0.000943931
0.000943936
0.000943941
0.000943946
0.000943951
0.000943956
0.000943961
0.000943966
0.000943971
0.000943976
0.000943981
0.000943985
0.00094399
0.000943995
0.000944
0.000944005
0.000944009
0.000944014
0.000944019
0.000944023
0.000944028
0.000944033
0.000944037
0.000944042
0.000944047
0.000944051
0.000944056
0.00094406
0.000944065
0.000944069
0.000944074
0.000944078
0.000944083
0.000944087
0.000944092
0.000944096
0.000944101
0.000944105
0.000944109
0.000944114
0.000944118
0.000944122
0.000944126
0.000944131
0.000944135
0.000944139
0.000944143
0.000944148
0.000944152
0.000944156
0.00094416
0.000944164
0.000944169
0.000944173
0.000944177
0.000944181
0.000944185
0.000944189
0.000944193
0.000944197
0.000944201
0.000944205
0.000944209
0.000944213
0.000944217
0.000944221
0.000944225
0.000944229
0.000944232
0.000944236
0.00094424
0.000944244
0.000944248
0.000944251
0.000944255
0.000944259
0.000944263
0.000944266
0.00094427
0.000944274
0.000944277
0.000944281
0.000944285
0.000944288
0.000944292
0.000944296
0.000944299
0.000944303
0.000944306
0.00094431
0.000944313
0.000944317
0.00094432
0.000944324
0.000944327
0.000944331
0.000944334
0.000944338
0.000944341
0.000944344
0.000944348
0.000944351
0.000944354
0.000944358
0.000944361
0.000944364
0.000944368
0.000944371
0.000944374
0.000944377
0.000944381
0.000944384
0.000944387
0.00094439
0.000944393
0.000944396
0.0009444
0.000944403
0.000944406
0.000944409
0.000944412
0.000944415
0.000944418
0.000944421
0.000944424
0.000944427
0.00094443
0.000944433
0.000944436
0.000944439
0.000944442
0.000944445
0.000944448
0.000944451
0.000944454
0.000944456
0.000944459
0.000944462
0.000944465
0.000944468
0.000944471
0.000944473
0.000944476
0.000944479
0.000944482
0.000944484
0.000944487
0.00094449
0.000944492
0.000944495
0.000944498
0.0009445
0.000944503
0.000944506
0.000944508
0.000944511
0.000944513
0.000944516
0.000944519
0.000944521
0.000944523
0.000944526
0.000944529
0.000944531
0.000944533
0.000944536
0.000944538
0.000944541
0.000944543
0.000944546
0.000944548
0.00094455
0.000944553
0.000944555
0.000944557
0.00094456
0.000944562
0.000944564
0.000944567
0.000944569
0.000944571
0.000944573
0.000944576
0.000944578
0.00094458
0.000944582
0.000944585
0.000944587
0.000944589
0.000944591
0.000944593
0.000944595
0.000944597
0.000944599
0.000944602
0.000944604
0.000944606
0.000944608
0.00094461
0.000944612
0.000944614
0.000944616
0.000944618
0.00094462
0.000944622
0.000944624
0.000944626
0.000944628
0.000944629
0.000944631
0.000944633
0.000944635
0.000944637
0.000944639
0.000944641
0.000944643
0.000944644
0.000944646
0.000944648
0.00094465
0.000944651
0.000944653
0.000944655
0.000944657
0.000944658
0.00094466
0.000944662
0.000944663
0.000944665
0.000944667
0.000944668
0.00094467
0.000944672
0.000944673
0.000944675
0.000944677
0.000944678
0.00094468
0.000944681
0.000944683
0.000944684
0.000944686
0.000944687
0.000944689
0.00094469
0.000944692
0.000944693
0.000944694
0.000944696
0.000944697
0.000944699
0.0009447
0.000944702
0.000944703
0.000944704
0.000944706
0.000944707
0.000944708
0.00094471
0.000944711
0.000944712
0.000944714
0.000944715
0.000944716
0.000944717
0.000944719
0.00094472
0.000944721
0.000944722
0.000944723
0.000944725
0.000944726
0.000944727
0.000944728
0.000944729
0.00094473
0.000944731
0.000944732
0.000944734
0.000944735
0.000944736
0.000944737
0.000944738
0.000944739
0.00094474
0.000944741
0.000944742
0.000944743
0.000944744
0.000944745
0.000944746
0.000944747
0.000944748
0.000944749
0.00094475
0.00094475
0.000944751
0.000944752
0.000944753
0.000944754
0.000944755
0.000944756
0.000944756
0.000944757
0.000944758
0.000944759
0.00094476
0.00094476
0.000944761
0.000944762
0.000944763
0.000944763
0.000944764
0.000944765
0.000944765
0.000944766
0.000944767
0.000944767
0.000944768
0.000944769
0.000944769
0.00094477
0.00094477
0.000944771
0.000944772
0.000944772
0.000944773
0.000944773
0.000944774
0.000944774
0.000944775
0.000944775
0.000944776
0.000944776
0.000944777
0.000944777
0.000944778
0.000944778
0.000944779
0.000944779
0.000944779
0.00094478
0.00094478
0.000944781
0.000944781
0.000944781
0.000944782
0.000944782
0.000944782
0.000944783
0.000944783
0.000944783
0.000944784
0.000944784
0.000944784
0.000944784
0.000944785
0.000944785
0.000944785
0.000944785
0.000944785
0.000944786
0.000944786
0.000944786
0.000944786
0.000944786
0.000944786
0.000944786
0.000944787
0.000944787
0.000944787
0.000944787
0.000944787
0.000944787
0.000944787
0.000944787
0.000944787
0.000944787
0.000944787
0.000944787
0.000944787
0.000944787
0.000944787
0.000944787
0.000944787
0.000944787
0.000944787
0.000944787
0.000944786
0.000944786
0.000944786
)
;

boundaryField
{
    fixedWall
    {
        type            calculated;
        value           uniform 0;
    }
    outlet
    {
        type            calculated;
        value           uniform 0.000944786;
    }
    defaultFaces
    {
        type            empty;
    }
}


// ************************************************************************* //
