/*--------------------------------*- C++ -*----------------------------------*\
| =========                 |                                                 |
| \\      /  F ield         | OpenFOAM: The Open Source CFD Toolbox           |
|  \\    /   O peration     | Version:  2406                                  |
|   \\  /    A nd           | Website:  www.openfoam.com                      |
|    \\/     M anipulation  |                                                 |
\*---------------------------------------------------------------------------*/
FoamFile
{
    version     2.0;
    format      ascii;
    arch        "LSB;label=32;scalar=64";
    class       volVectorField;
    location    "3.3";
    object      U;
}
// * * * * * * * * * * * * * * * * * * * * * * * * * * * * * * * * * * * * * //

dimensions      [0 1 -1 0 0 0 0];

internalField   nonuniform List<vector> 
1000
(
(-5.50271e-06 0 0)
(-2.55897e-05 0 0)
(-6.28369e-05 0 0)
(-0.000110625 0 0)
(-0.000165626 0 0)
(-0.000225971 0 0)
(-0.000290391 0 0)
(-0.000357904 0 0)
(-0.000427736 0 0)
(-0.000499275 0 0)
(-0.000572028 0 0)
(-0.00064559 0 0)
(-0.000719625 0 0)
(-0.000793848 0 0)
(-0.000868019 0 0)
(-0.000941927 0 0)
(-0.00101539 0 0)
(-0.00108826 0 0)
(-0.00116039 0 0)
(-0.00123166 0 0)
(-0.00130197 0 0)
(-0.00137123 0 0)
(-0.00143934 0 0)
(-0.00150624 0 0)
(-0.00157187 0 0)
(-0.00163617 0 0)
(-0.00169909 0 0)
(-0.00176059 0 0)
(-0.00182065 0 0)
(-0.00187922 0 0)
(-0.00193628 0 0)
(-0.00199182 0 0)
(-0.00204583 0 0)
(-0.00209829 0 0)
(-0.0021492 0 0)
(-0.00219855 0 0)
(-0.00224635 0 0)
(-0.0022926 0 0)
(-0.00233731 0 0)
(-0.00238049 0 0)
(-0.00242215 0 0)
(-0.00246231 0 0)
(-0.00250098 0 0)
(-0.0025382 0 0)
(-0.00257397 0 0)
(-0.00260832 0 0)
(-0.00264128 0 0)
(-0.00267287 0 0)
(-0.00270313 0 0)
(-0.00273207 0 0)
(-0.00275973 0 0)
(-0.00278615 0 0)
(-0.00281135 0 0)
(-0.00283536 0 0)
(-0.00285822 0 0)
(-0.00287996 0 0)
(-0.00290062 0 0)
(-0.00292023 0 0)
(-0.00293882 0 0)
(-0.00295643 0 0)
(-0.0029731 0 0)
(-0.00298884 0 0)
(-0.00300371 0 0)
(-0.00301774 0 0)
(-0.00303094 0 0)
(-0.00304337 0 0)
(-0.00305506 0 0)
(-0.00306602 0 0)
(-0.0030763 0 0)
(-0.00308594 0 0)
(-0.00309495 0 0)
(-0.00310335 0 0)
(-0.00311112 0 0)
(-0.00311834 0 0)
(-0.00312511 0 0)
(-0.00313145 0 0)
(-0.00313732 0 0)
(-0.00314277 0 0)
(-0.00314778 0 0)
(-0.0031524 0 0)
(-0.00315667 0 0)
(-0.00316057 0 0)
(-0.00316416 0 0)
(-0.00316744 0 0)
(-0.00317044 0 0)
(-0.00317316 0 0)
(-0.00317564 0 0)
(-0.00317788 0 0)
(-0.0031799 0 0)
(-0.00318171 0 0)
(-0.00318335 0 0)
(-0.0031848 0 0)
(-0.00318605 0 0)
(-0.0031872 0 0)
(-0.00318817 0 0)
(-0.00318904 0 0)
(-0.00318978 0 0)
(-0.00319038 0 0)
(-0.0031909 0 0)
(-0.00319132 0 0)
(-0.00319165 0 0)
(-0.00319191 0 0)
(-0.00319208 0 0)
(-0.00319219 0 0)
(-0.00319224 0 0)
(-0.00319223 0 0)
(-0.00319216 0 0)
(-0.00319206 0 0)
(-0.0031919 0 0)
(-0.00319171 0 0)
(-0.00319148 0 0)
(-0.00319123 0 0)
(-0.00319094 0 0)
(-0.00319062 0 0)
(-0.00319029 0 0)
(-0.00318993 0 0)
(-0.00318955 0 0)
(-0.00318916 0 0)
(-0.00318875 0 0)
(-0.00318833 0 0)
(-0.00318789 0 0)
(-0.00318745 0 0)
(-0.003187 0 0)
(-0.00318654 0 0)
(-0.00318607 0 0)
(-0.00318559 0 0)
(-0.00318511 0 0)
(-0.00318463 0 0)
(-0.00318414 0 0)
(-0.00318365 0 0)
(-0.00318316 0 0)
(-0.00318266 0 0)
(-0.00318216 0 0)
(-0.00318166 0 0)
(-0.00318116 0 0)
(-0.00318066 0 0)
(-0.00318016 0 0)
(-0.00317966 0 0)
(-0.00317915 0 0)
(-0.00317865 0 0)
(-0.00317815 0 0)
(-0.00317765 0 0)
(-0.00317715 0 0)
(-0.00317664 0 0)
(-0.00317614 0 0)
(-0.00317564 0 0)
(-0.00317514 0 0)
(-0.00317464 0 0)
(-0.00317414 0 0)
(-0.00317364 0 0)
(-0.00317315 0 0)
(-0.00317265 0 0)
(-0.00317215 0 0)
(-0.00317166 0 0)
(-0.00317116 0 0)
(-0.00317066 0 0)
(-0.00317017 0 0)
(-0.00316967 0 0)
(-0.00316918 0 0)
(-0.00316869 0 0)
(-0.00316819 0 0)
(-0.0031677 0 0)
(-0.00316721 0 0)
(-0.00316671 0 0)
(-0.00316622 0 0)
(-0.00316573 0 0)
(-0.00316524 0 0)
(-0.00316474 0 0)
(-0.00316425 0 0)
(-0.00316376 0 0)
(-0.00316327 0 0)
(-0.00316278 0 0)
(-0.00316228 0 0)
(-0.00316179 0 0)
(-0.0031613 0 0)
(-0.00316081 0 0)
(-0.00316032 0 0)
(-0.00315982 0 0)
(-0.00315933 0 0)
(-0.00315884 0 0)
(-0.00315834 0 0)
(-0.00315785 0 0)
(-0.00315736 0 0)
(-0.00315686 0 0)
(-0.00315637 0 0)
(-0.00315587 0 0)
(-0.00315538 0 0)
(-0.00315488 0 0)
(-0.00315439 0 0)
(-0.00315389 0 0)
(-0.00315339 0 0)
(-0.0031529 0 0)
(-0.0031524 0 0)
(-0.0031519 0 0)
(-0.0031514 0 0)
(-0.0031509 0 0)
(-0.0031504 0 0)
(-0.0031499 0 0)
(-0.0031494 0 0)
(-0.0031489 0 0)
(-0.0031484 0 0)
(-0.00314789 0 0)
(-0.00314739 0 0)
(-0.00314689 0 0)
(-0.00314638 0 0)
(-0.00314588 0 0)
(-0.00314537 0 0)
(-0.00314486 0 0)
(-0.00314436 0 0)
(-0.00314385 0 0)
(-0.00314334 0 0)
(-0.00314283 0 0)
(-0.00314232 0 0)
(-0.00314181 0 0)
(-0.0031413 0 0)
(-0.00314078 0 0)
(-0.00314027 0 0)
(-0.00313976 0 0)
(-0.00313924 0 0)
(-0.00313873 0 0)
(-0.00313821 0 0)
(-0.00313769 0 0)
(-0.00313718 0 0)
(-0.00313666 0 0)
(-0.00313614 0 0)
(-0.00313562 0 0)
(-0.0031351 0 0)
(-0.00313458 0 0)
(-0.00313406 0 0)
(-0.00313354 0 0)
(-0.00313301 0 0)
(-0.00313249 0 0)
(-0.00313197 0 0)
(-0.00313144 0 0)
(-0.00313092 0 0)
(-0.00313039 0 0)
(-0.00312987 0 0)
(-0.00312934 0 0)
(-0.00312881 0 0)
(-0.00312829 0 0)
(-0.00312776 0 0)
(-0.00312723 0 0)
(-0.0031267 0 0)
(-0.00312617 0 0)
(-0.00312564 0 0)
(-0.00312511 0 0)
(-0.00312458 0 0)
(-0.00312405 0 0)
(-0.00312352 0 0)
(-0.00312298 0 0)
(-0.00312245 0 0)
(-0.00312191 0 0)
(-0.00312138 0 0)
(-0.00312084 0 0)
(-0.00312031 0 0)
(-0.00311977 0 0)
(-0.00311923 0 0)
(-0.00311869 0 0)
(-0.00311815 0 0)
(-0.00311761 0 0)
(-0.00311707 0 0)
(-0.00311653 0 0)
(-0.00311599 0 0)
(-0.00311544 0 0)
(-0.0031149 0 0)
(-0.00311435 0 0)
(-0.00311381 0 0)
(-0.00311326 0 0)
(-0.00311271 0 0)
(-0.00311217 0 0)
(-0.00311162 0 0)
(-0.00311106 0 0)
(-0.00311051 0 0)
(-0.00310996 0 0)
(-0.00310941 0 0)
(-0.00310885 0 0)
(-0.0031083 0 0)
(-0.00310774 0 0)
(-0.00310719 0 0)
(-0.00310663 0 0)
(-0.00310608 0 0)
(-0.00310552 0 0)
(-0.00310496 0 0)
(-0.0031044 0 0)
(-0.00310384 0 0)
(-0.00310328 0 0)
(-0.00310272 0 0)
(-0.00310216 0 0)
(-0.0031016 0 0)
(-0.00310104 0 0)
(-0.00310048 0 0)
(-0.00309992 0 0)
(-0.00309936 0 0)
(-0.0030988 0 0)
(-0.00309824 0 0)
(-0.00309767 0 0)
(-0.00309711 0 0)
(-0.00309655 0 0)
(-0.00309599 0 0)
(-0.00309542 0 0)
(-0.00309486 0 0)
(-0.0030943 0 0)
(-0.00309373 0 0)
(-0.00309317 0 0)
(-0.00309262 0 0)
(-0.00309203 0 0)
(-0.00309147 0 0)
(-0.00309092 0 0)
(-0.00309034 0 0)
(-0.00308977 0 0)
(-0.00308922 0 0)
(-0.00308864 0 0)
(-0.00308807 0 0)
(-0.00308752 0 0)
(-0.00308694 0 0)
(-0.00308636 0 0)
(-0.0030858 0 0)
(-0.00308524 0 0)
(-0.00308465 0 0)
(-0.00308409 0 0)
(-0.00308353 0 0)
(-0.00308295 0 0)
(-0.00308236 0 0)
(-0.00308181 0 0)
(-0.00308123 0 0)
(-0.00308064 0 0)
(-0.00308009 0 0)
(-0.0030795 0 0)
(-0.00307894 0 0)
(-0.00307835 0 0)
(-0.00307777 0 0)
(-0.0030772 0 0)
(-0.00307662 0 0)
(-0.00307604 0 0)
(-0.00307546 0 0)
(-0.00307488 0 0)
(-0.00307429 0 0)
(-0.00307371 0 0)
(-0.00307313 0 0)
(-0.00307254 0 0)
(-0.00307195 0 0)
(-0.00307136 0 0)
(-0.00307077 0 0)
(-0.00307018 0 0)
(-0.00306959 0 0)
(-0.003069 0 0)
(-0.0030684 0 0)
(-0.00306781 0 0)
(-0.00306721 0 0)
(-0.00306661 0 0)
(-0.00306601 0 0)
(-0.00306541 0 0)
(-0.00306481 0 0)
(-0.00306421 0 0)
(-0.0030636 0 0)
(-0.003063 0 0)
(-0.00306239 0 0)
(-0.00306178 0 0)
(-0.00306118 0 0)
(-0.00306057 0 0)
(-0.00305996 0 0)
(-0.00305935 0 0)
(-0.00305874 0 0)
(-0.00305813 0 0)
(-0.00305752 0 0)
(-0.00305691 0 0)
(-0.0030563 0 0)
(-0.00305569 0 0)
(-0.00305508 0 0)
(-0.00305446 0 0)
(-0.00305385 0 0)
(-0.00305324 0 0)
(-0.00305263 0 0)
(-0.00305202 0 0)
(-0.00305141 0 0)
(-0.0030508 0 0)
(-0.00305018 0 0)
(-0.00304957 0 0)
(-0.00304896 0 0)
(-0.00304834 0 0)
(-0.00304773 0 0)
(-0.00304712 0 0)
(-0.0030465 0 0)
(-0.00304588 0 0)
(-0.00304527 0 0)
(-0.00304465 0 0)
(-0.00304403 0 0)
(-0.00304341 0 0)
(-0.00304279 0 0)
(-0.00304217 0 0)
(-0.00304155 0 0)
(-0.00304093 0 0)
(-0.00304031 0 0)
(-0.00303969 0 0)
(-0.00303906 0 0)
(-0.00303844 0 0)
(-0.00303781 0 0)
(-0.0030372 0 0)
(-0.00303659 0 0)
(-0.00303595 0 0)
(-0.00303532 0 0)
(-0.0030347 0 0)
(-0.00303408 0 0)
(-0.00303343 0 0)
(-0.00303283 0 0)
(-0.00303219 0 0)
(-0.00303155 0 0)
(-0.00303094 0 0)
(-0.00303028 0 0)
(-0.00302967 0 0)
(-0.00302904 0 0)
(-0.0030284 0 0)
(-0.00302776 0 0)
(-0.00302714 0 0)
(-0.00302649 0 0)
(-0.00302586 0 0)
(-0.00302524 0 0)
(-0.0030246 0 0)
(-0.00302396 0 0)
(-0.00302336 0 0)
(-0.00302272 0 0)
(-0.00302209 0 0)
(-0.00302149 0 0)
(-0.00302086 0 0)
(-0.00302027 0 0)
(-0.00301967 0 0)
(-0.00301907 0 0)
(-0.00301848 0 0)
(-0.00301786 0 0)
(-0.0030173 0 0)
(-0.0030167 0 0)
(-0.00301608 0 0)
(-0.00301552 0 0)
(-0.0030149 0 0)
(-0.0030143 0 0)
(-0.00301369 0 0)
(-0.00301305 0 0)
(-0.00301242 0 0)
(-0.00301176 0 0)
(-0.0030111 0 0)
(-0.0030104 0 0)
(-0.00300969 0 0)
(-0.00300895 0 0)
(-0.0030082 0 0)
(-0.00300741 0 0)
(-0.00300661 0 0)
(-0.00300578 0 0)
(-0.00300493 0 0)
(-0.00300407 0 0)
(-0.00300318 0 0)
(-0.00300229 0 0)
(-0.00300138 0 0)
(-0.00300047 0 0)
(-0.00299956 0 0)
(-0.00299866 0 0)
(-0.00299776 0 0)
(-0.00299687 0 0)
(-0.00299601 0 0)
(-0.00299514 0 0)
(-0.00299433 0 0)
(-0.00299354 0 0)
(-0.00299275 0 0)
(-0.002992 0 0)
(-0.00299129 0 0)
(-0.00299059 0 0)
(-0.00298992 0 0)
(-0.00298924 0 0)
(-0.00298858 0 0)
(-0.00298793 0 0)
(-0.00298727 0 0)
(-0.0029866 0 0)
(-0.00298591 0 0)
(-0.00298519 0 0)
(-0.00298444 0 0)
(-0.00298365 0 0)
(-0.00298282 0 0)
(-0.00298195 0 0)
(-0.00298103 0 0)
(-0.00298008 0 0)
(-0.0029791 0 0)
(-0.00297809 0 0)
(-0.00297707 0 0)
(-0.00297604 0 0)
(-0.002975 0 0)
(-0.00297398 0 0)
(-0.00297298 0 0)
(-0.002972 0 0)
(-0.00297104 0 0)
(-0.0029701 0 0)
(-0.00296919 0 0)
(-0.00296829 0 0)
(-0.0029674 0 0)
(-0.00296652 0 0)
(-0.00296564 0 0)
(-0.00296476 0 0)
(-0.00296389 0 0)
(-0.00296304 0 0)
(-0.00296218 0 0)
(-0.00296136 0 0)
(-0.0029604 0 0)
(-0.00295967 0 0)
(-0.00295823 0 0)
(-0.00295745 0 0)
(-0.00295546 0 0)
(-0.00295357 0 0)
(-0.00295162 0 0)
(-0.00294807 0 0)
(-0.00294471 0 0)
(-0.00294006 0 0)
(-0.0029348 0 0)
(-0.00292845 0 0)
(-0.00292092 0 0)
(-0.00291145 0 0)
(-0.00290013 0 0)
(-0.00288582 0 0)
(-0.00286362 0 0)
(-0.00283328 0 0)
(-0.00276884 0 0)
(-0.00273668 0 0)
(-0.00285611 0 0)
(-0.0029469 0 0)
(-0.00531091 0 0)
(-0.00499515 0 0)
(0.0199895 0 0)
(0.0598709 0 0)
(0.0855644 0 0)
(0.0978308 0 0)
(0.103533 0 0)
(0.106099 0 0)
(0.107278 0 0)
(0.107839 0 0)
(0.108135 0 0)
(0.108259 0 0)
(0.108363 0 0)
(0.108406 0 0)
(0.108416 0 0)
(0.108412 0 0)
(0.108449 0 0)
(0.108448 0 0)
(0.108426 0 0)
(0.108464 0 0)
(0.108423 0 0)
(0.108463 0 0)
(0.108455 0 0)
(0.108421 0 0)
(0.108469 0 0)
(0.108455 0 0)
(0.108444 0 0)
(0.108455 0 0)
(0.108438 0 0)
(0.108476 0 0)
(0.108458 0 0)
(0.108424 0 0)
(0.108479 0 0)
(0.108466 0 0)
(0.108423 0 0)
(0.108472 0 0)
(0.108466 0 0)
(0.108468 0 0)
(0.10845 0 0)
(0.108448 0 0)
(0.108469 0 0)
(0.108465 0 0)
(0.108473 0 0)
(0.108434 0 0)
(0.108489 0 0)
(0.108468 0 0)
(0.108448 0 0)
(0.108479 0 0)
(0.108456 0 0)
(0.10847 0 0)
(0.108471 0 0)
(0.108476 0 0)
(0.108456 0 0)
(0.108463 0 0)
(0.108493 0 0)
(0.108451 0 0)
(0.108477 0 0)
(0.108484 0 0)
(0.108452 0 0)
(0.108476 0 0)
(0.108496 0 0)
(0.10847 0 0)
(0.108447 0 0)
(0.108507 0 0)
(0.108478 0 0)
(0.108442 0 0)
(0.108506 0 0)
(0.108499 0 0)
(0.108451 0 0)
(0.108484 0 0)
(0.108494 0 0)
(0.108462 0 0)
(0.108496 0 0)
(0.108473 0 0)
(0.10849 0 0)
(0.108493 0 0)
(0.108468 0 0)
(0.108492 0 0)
(0.108488 0 0)
(0.108491 0 0)
(0.108476 0 0)
(0.108493 0 0)
(0.108491 0 0)
(0.108504 0 0)
(0.10847 0 0)
(0.10847 0 0)
(0.108512 0 0)
(0.108506 0 0)
(0.108468 0 0)
(0.108482 0 0)
(0.108527 0 0)
(0.108477 0 0)
(0.108481 0 0)
(0.108504 0 0)
(0.108493 0 0)
(0.108514 0 0)
(0.108491 0 0)
(0.108475 0 0)
(0.108513 0 0)
(0.108496 0 0)
(0.108507 0 0)
(0.108482 0 0)
(0.10851 0 0)
(0.108512 0 0)
(0.108475 0 0)
(0.108525 0 0)
(0.108484 0 0)
(0.108517 0 0)
(0.108511 0 0)
(0.108481 0 0)
(0.108519 0 0)
(0.1085 0 0)
(0.10851 0 0)
(0.108494 0 0)
(0.108513 0 0)
(0.108519 0 0)
(0.108486 0 0)
(0.108526 0 0)
(0.108497 0 0)
(0.108515 0 0)
(0.108518 0 0)
(0.108496 0 0)
(0.108521 0 0)
(0.108497 0 0)
(0.108527 0 0)
(0.108519 0 0)
(0.108489 0 0)
(0.108531 0 0)
(0.108502 0 0)
(0.108521 0 0)
(0.108523 0 0)
(0.108501 0 0)
(0.108523 0 0)
(0.108516 0 0)
(0.108517 0 0)
(0.108515 0 0)
(0.108519 0 0)
(0.108516 0 0)
(0.108522 0 0)
(0.10851 0 0)
(0.108536 0 0)
(0.108528 0 0)
(0.10849 0 0)
(0.108541 0 0)
(0.108513 0 0)
(0.108529 0 0)
(0.108524 0 0)
(0.108512 0 0)
(0.108534 0 0)
(0.108525 0 0)
(0.108514 0 0)
(0.108536 0 0)
(0.108538 0 0)
(0.108498 0 0)
(0.108537 0 0)
(0.108546 0 0)
(0.108522 0 0)
(0.108506 0 0)
(0.108518 0 0)
(0.108552 0 0)
(0.108551 0 0)
(0.108474 0 0)
(0.108543 0 0)
(0.108558 0 0)
(0.108495 0 0)
(0.108551 0 0)
(0.108533 0 0)
(0.108543 0 0)
(0.108504 0 0)
(0.108544 0 0)
(0.108545 0 0)
(0.10851 0 0)
(0.10856 0 0)
(0.108518 0 0)
(0.108541 0 0)
(0.108543 0 0)
(0.108526 0 0)
(0.108543 0 0)
(0.108529 0 0)
(0.108547 0 0)
(0.108548 0 0)
(0.108509 0 0)
(0.108549 0 0)
(0.108563 0 0)
(0.108504 0 0)
(0.10856 0 0)
(0.108555 0 0)
(0.108499 0 0)
(0.108576 0 0)
(0.108548 0 0)
(0.108508 0 0)
(0.108563 0 0)
(0.108552 0 0)
(0.108523 0 0)
(0.108552 0 0)
(0.108536 0 0)
(0.108556 0 0)
(0.108544 0 0)
(0.108527 0 0)
(0.108567 0 0)
(0.108531 0 0)
(0.108554 0 0)
(0.108557 0 0)
(0.108531 0 0)
(0.108556 0 0)
(0.108533 0 0)
(0.108569 0 0)
(0.108557 0 0)
(0.108518 0 0)
(0.10857 0 0)
(0.108559 0 0)
(0.108533 0 0)
(0.108555 0 0)
(0.108548 0 0)
(0.108557 0 0)
(0.108561 0 0)
(0.108531 0 0)
(0.108554 0 0)
(0.108557 0 0)
(0.108557 0 0)
(0.108561 0 0)
(0.108528 0 0)
(0.10856 0 0)
(0.108574 0 0)
(0.108525 0 0)
(0.108563 0 0)
(0.108575 0 0)
(0.108532 0 0)
(0.108565 0 0)
(0.108559 0 0)
(0.108538 0 0)
(0.108575 0 0)
(0.108563 0 0)
(0.108541 0 0)
(0.108564 0 0)
(0.108573 0 0)
(0.108534 0 0)
(0.108558 0 0)
(0.108566 0 0)
(0.108564 0 0)
(0.108569 0 0)
(0.108532 0 0)
(0.108573 0 0)
(0.108583 0 0)
(0.108527 0 0)
(0.108578 0 0)
(0.108576 0 0)
(0.108524 0 0)
(0.108596 0 0)
(0.108568 0 0)
(0.108529 0 0)
(0.108581 0 0)
(0.108577 0 0)
(0.108558 0 0)
(0.108534 0 0)
(0.108587 0 0)
(0.108571 0 0)
(0.108541 0 0)
(0.108588 0 0)
(0.108551 0 0)
(0.108582 0 0)
(0.108566 0 0)
(0.108543 0 0)
(0.108586 0 0)
(0.108557 0 0)
(0.108573 0 0)
(0.108576 0 0)
(0.108547 0 0)
(0.108581 0 0)
(0.108561 0 0)
(0.108577 0 0)
(0.108576 0 0)
(0.108543 0 0)
(0.10859 0 0)
(0.108577 0 0)
(0.108547 0 0)
(0.108579 0 0)
(0.108592 0 0)
(0.108545 0 0)
(0.108574 0 0)
(0.108573 0 0)
(0.108574 0 0)
(0.108579 0 0)
(0.108556 0 0)
(0.108582 0 0)
(0.108567 0 0)
(0.10858 0 0)
(0.108583 0 0)
(0.108543 0 0)
(0.108587 0 0)
(0.108585 0 0)
(0.108579 0 0)
(0.108545 0 0)
(0.108571 0 0)
(0.108603 0 0)
(0.108546 0 0)
(0.108596 0 0)
(0.108583 0 0)
(0.108552 0 0)
(0.108585 0 0)
(0.108596 0 0)
(0.108552 0 0)
(0.108582 0 0)
(0.108573 0 0)
(0.108591 0 0)
(0.108577 0 0)
(0.108557 0 0)
(0.108594 0 0)
(0.108574 0 0)
(0.108579 0 0)
(0.108574 0 0)
(0.108585 0 0)
(0.108569 0 0)
(0.108585 0 0)
(0.108589 0 0)
(0.108556 0 0)
(0.108597 0 0)
(0.108586 0 0)
(0.108557 0 0)
(0.10859 0 0)
(0.108605 0 0)
(0.108551 0 0)
(0.108582 0 0)
(0.108585 0 0)
(0.10859 0 0)
(0.108579 0 0)
(0.108581 0 0)
(0.108567 0 0)
(0.108582 0 0)
(0.108606 0 0)
(0.108558 0 0)
(0.108588 0 0)
(0.108604 0 0)
(0.108574 0 0)
(0.108546 0 0)
(0.108607 0 0)
(0.1086 0 0)
(0.108555 0 0)
(0.108599 0 0)
(0.108577 0 0)
(0.108587 0 0)
(0.108581 0 0)
(0.108598 0 0)
(0.10858 0 0)
(0.108561 0 0)
(0.108605 0 0)
(0.10857 0 0)
(0.108601 0 0)
(0.108585 0 0)
(0.108562 0 0)
(0.108609 0 0)
(0.108578 0 0)
(0.108592 0 0)
(0.108585 0 0)
(0.108587 0 0)
(0.10857 0 0)
(0.108602 0 0)
(0.108592 0 0)
(0.108564 0 0)
(0.10861 0 0)
(0.108578 0 0)
(0.10859 0 0)
(0.108585 0 0)
(0.108588 0 0)
(0.108587 0 0)
(0.10859 0 0)
(0.108583 0 0)
(0.108593 0 0)
(0.108594 0 0)
(0.10857 0 0)
(0.108599 0 0)
(0.108604 0 0)
(0.108568 0 0)
(0.108592 0 0)
(0.108605 0 0)
(0.10857 0 0)
(0.108577 0 0)
(0.108613 0 0)
(0.108603 0 0)
(0.108562 0 0)
(0.108584 0 0)
(0.108602 0 0)
(0.108592 0 0)
(0.108597 0 0)
(0.108568 0 0)
(0.108599 0 0)
(0.108602 0 0)
(0.108562 0 0)
(0.108617 0 0)
(0.108593 0 0)
(0.108567 0 0)
(0.10861 0 0)
(0.108605 0 0)
(0.108578 0 0)
(0.108567 0 0)
(0.108609 0 0)
(0.108616 0 0)
(0.108567 0 0)
(0.108589 0 0)
(0.108598 0 0)
(0.108594 0 0)
(0.108597 0 0)
(0.108575 0 0)
(0.108601 0 0)
(0.108608 0 0)
(0.108555 0 0)
(0.10861 0 0)
(0.108612 0 0)
(0.10857 0 0)
(0.108615 0 0)
(0.108582 0 0)
(0.10859 0 0)
(0.108603 0 0)
(0.108579 0 0)
(0.108601 0 0)
(0.108591 0 0)
(0.108594 0 0)
(0.108596 0 0)
(0.108572 0 0)
(0.108609 0 0)
(0.108607 0 0)
(0.108576 0 0)
(0.10859 0 0)
(0.108599 0 0)
(0.108589 0 0)
(0.10861 0 0)
(0.108592 0 0)
(0.108571 0 0)
(0.108612 0 0)
(0.108601 0 0)
(0.108569 0 0)
(0.108612 0 0)
(0.108605 0 0)
(0.108569 0 0)
(0.108614 0 0)
(0.108585 0 0)
(0.1086 0 0)
(0.108602 0 0)
(0.108573 0 0)
(0.108612 0 0)
(0.108605 0 0)
(0.10857 0 0)
(0.108604 0 0)
(0.108618 0 0)
(0.108566 0 0)
(0.108601 0 0)
(0.108609 0 0)
(0.108571 0 0)
(0.108614 0 0)
(0.108608 0 0)
(0.108554 0 0)
(0.108623 0 0)
(0.108596 0 0)
(0.108579 0 0)
(0.108611 0 0)
(0.108601 0 0)
(0.108574 0 0)
(0.108602 0 0)
(0.108609 0 0)
(0.108571 0 0)
(0.108615 0 0)
(0.108603 0 0)
(0.108574 0 0)
(0.108605 0 0)
(0.108611 0 0)
(0.108574 0 0)
(0.10861 0 0)
(0.108601 0 0)
(0.108575 0 0)
(0.108612 0 0)
(0.108601 0 0)
(0.108566 0 0)
(0.108605 0 0)
(0.108619 0 0)
(0.108572 0 0)
(0.108602 0 0)
(0.108606 0 0)
(0.10858 0 0)
(0.108597 0 0)
)
;

boundaryField
{
    fixedWall
    {
        type            fixedValue;
        value           uniform (0 0 0);
    }
    outlet
    {
        type            pressureInletOutletVelocity;
        value           uniform (0.108597 0 0);
    }
    defaultFaces
    {
        type            empty;
    }
}


// ************************************************************************* //
