/*--------------------------------*- C++ -*----------------------------------*\
| =========                 |                                                 |
| \\      /  F ield         | OpenFOAM: The Open Source CFD Toolbox           |
|  \\    /   O peration     | Version:  2406                                  |
|   \\  /    A nd           | Website:  www.openfoam.com                      |
|    \\/     M anipulation  |                                                 |
\*---------------------------------------------------------------------------*/
FoamFile
{
    version     2.0;
    format      ascii;
    arch        "LSB;label=32;scalar=64";
    class       volScalarField;
    location    "3.7";
    object      H2O;
}
// * * * * * * * * * * * * * * * * * * * * * * * * * * * * * * * * * * * * * //

dimensions      [0 0 0 0 0 0 0];

internalField   nonuniform List<scalar> 
1000
(
0.0580663
0.0580663
0.0580663
0.0580663
0.0580663
0.0580663
0.0580663
0.0580663
0.0580663
0.0580664
0.0580664
0.0580664
0.0580664
0.0580664
0.0580664
0.0580664
0.0580664
0.0580664
0.0580665
0.0580665
0.0580665
0.0580665
0.0580665
0.0580665
0.0580665
0.0580665
0.0580666
0.0580666
0.0580666
0.0580666
0.0580666
0.0580666
0.0580666
0.0580666
0.0580667
0.0580667
0.0580667
0.0580667
0.0580667
0.0580667
0.0580667
0.0580667
0.0580667
0.0580667
0.0580668
0.0580668
0.0580668
0.0580668
0.0580668
0.0580668
0.0580668
0.0580668
0.0580668
0.0580668
0.0580668
0.0580668
0.0580668
0.0580668
0.0580668
0.0580668
0.0580668
0.0580668
0.0580668
0.0580668
0.0580668
0.0580668
0.0580668
0.0580668
0.0580668
0.0580668
0.0580668
0.0580668
0.0580668
0.0580668
0.0580668
0.0580669
0.0580669
0.0580669
0.0580669
0.0580669
0.0580669
0.0580669
0.0580669
0.0580669
0.0580669
0.0580669
0.0580669
0.0580668
0.0580668
0.0580668
0.0580668
0.0580668
0.0580668
0.0580668
0.0580668
0.0580668
0.0580668
0.0580668
0.0580668
0.0580668
0.0580668
0.0580668
0.0580668
0.0580668
0.0580668
0.0580668
0.0580668
0.0580668
0.0580668
0.0580668
0.0580668
0.0580668
0.0580668
0.0580668
0.0580668
0.0580668
0.0580668
0.0580668
0.0580668
0.0580668
0.0580668
0.0580668
0.0580668
0.0580668
0.0580668
0.0580668
0.0580668
0.0580668
0.0580668
0.0580668
0.0580668
0.0580668
0.0580668
0.0580668
0.0580668
0.0580668
0.0580668
0.0580668
0.0580668
0.0580668
0.0580668
0.0580668
0.0580668
0.0580668
0.0580668
0.0580668
0.0580668
0.0580668
0.0580668
0.0580668
0.0580668
0.0580668
0.0580668
0.0580668
0.0580668
0.0580668
0.0580668
0.0580668
0.0580668
0.0580668
0.0580668
0.0580668
0.0580668
0.0580668
0.0580668
0.0580668
0.0580668
0.0580668
0.0580668
0.0580668
0.0580668
0.0580668
0.0580668
0.0580668
0.0580668
0.0580668
0.0580668
0.0580668
0.0580668
0.0580668
0.0580668
0.0580668
0.0580668
0.0580668
0.0580668
0.0580668
0.0580668
0.0580668
0.0580668
0.0580668
0.0580668
0.0580668
0.0580668
0.0580668
0.0580668
0.0580668
0.0580668
0.0580668
0.0580668
0.0580668
0.0580668
0.0580667
0.0580667
0.0580667
0.0580667
0.0580667
0.0580667
0.0580667
0.0580667
0.0580667
0.0580667
0.0580667
0.0580667
0.0580667
0.0580667
0.0580667
0.0580667
0.0580667
0.0580667
0.0580667
0.0580667
0.0580667
0.0580667
0.0580667
0.0580667
0.0580667
0.0580667
0.0580667
0.0580667
0.0580667
0.0580667
0.0580667
0.0580667
0.0580667
0.0580667
0.0580667
0.0580667
0.0580667
0.0580667
0.0580667
0.0580667
0.0580667
0.0580667
0.0580667
0.0580667
0.0580667
0.0580667
0.0580667
0.0580667
0.0580667
0.0580667
0.0580667
0.0580667
0.0580667
0.0580667
0.0580667
0.0580667
0.0580667
0.0580667
0.0580667
0.0580667
0.0580667
0.0580667
0.0580667
0.0580667
0.0580667
0.0580667
0.0580667
0.0580667
0.0580667
0.0580667
0.0580666
0.0580666
0.0580666
0.0580666
0.0580666
0.0580666
0.0580666
0.0580666
0.0580666
0.0580666
0.0580666
0.0580666
0.0580666
0.0580666
0.0580666
0.0580666
0.0580666
0.0580666
0.0580666
0.0580666
0.0580666
0.0580666
0.0580666
0.0580666
0.0580666
0.0580666
0.0580666
0.0580666
0.0580666
0.0580666
0.0580666
0.0580666
0.0580666
0.0580666
0.0580666
0.0580666
0.0580666
0.0580666
0.0580666
0.0580666
0.0580666
0.0580666
0.0580666
0.0580666
0.0580666
0.0580666
0.0580666
0.0580666
0.0580665
0.0580665
0.0580665
0.0580665
0.0580665
0.0580665
0.0580665
0.0580665
0.0580665
0.0580665
0.0580665
0.0580665
0.0580665
0.0580665
0.0580665
0.0580665
0.0580665
0.0580665
0.0580665
0.0580665
0.0580665
0.0580665
0.0580665
0.0580665
0.0580665
0.0580665
0.0580665
0.0580665
0.0580665
0.0580665
0.0580665
0.0580665
0.0580665
0.0580665
0.0580665
0.0580664
0.0580664
0.0580664
0.0580664
0.0580664
0.0580664
0.0580664
0.0580664
0.0580664
0.0580664
0.0580664
0.0580664
0.0580664
0.0580664
0.0580664
0.0580664
0.0580664
0.0580664
0.0580664
0.0580664
0.0580664
0.0580664
0.0580664
0.0580664
0.0580664
0.0580664
0.0580664
0.0580663
0.0580663
0.0580663
0.0580663
0.0580663
0.0580663
0.0580663
0.0580663
0.0580663
0.0580663
0.0580663
0.0580663
0.0580663
0.0580663
0.0580663
0.0580663
0.0580663
0.0580663
0.0580663
0.0580663
0.0580663
0.0580662
0.0580662
0.0580662
0.0580662
0.0580662
0.0580662
0.0580662
0.0580662
0.0580662
0.0580662
0.0580662
0.0580662
0.0580662
0.0580662
0.0580662
0.0580662
0.0580662
0.0580661
0.0580661
0.0580661
0.0580661
0.0580661
0.0580661
0.0580661
0.0580661
0.0580661
0.0580661
0.0580661
0.0580661
0.0580661
0.0580661
0.058066
0.058066
0.058066
0.058066
0.058066
0.058066
0.058066
0.058066
0.058066
0.058066
0.058066
0.058066
0.0580659
0.0580659
0.0580659
0.0580659
0.0580659
0.0580659
0.0580659
0.0580659
0.0580659
0.0580659
0.0580658
0.0580658
0.0580658
0.0580658
0.0580658
0.0580658
0.0580658
0.0580658
0.0580658
0.0580657
0.0580657
0.0580657
0.0580657
0.0580657
0.0580657
0.0580657
0.0580657
0.0580656
0.0580656
0.0580656
0.0580656
0.0580656
0.0580656
0.0580655
0.0580655
0.0580655
0.0580655
0.0580655
0.0580655
0.0580654
0.0580654
0.0580654
0.0580654
0.0580654
0.0580653
0.0580653
0.0580653
0.0580653
0.0580653
0.0580652
0.0580652
0.0580652
0.0580652
0.0580651
0.0580651
0.0580651
0.0580651
0.058065
0.058065
0.058065
0.058065
0.0580649
0.0580649
0.0580649
0.0580648
0.0580648
0.0580648
0.0580647
0.0580647
0.0580647
0.0580646
0.0580646
0.0580645
0.0580645
0.0580644
0.0580644
0.0580644
0.0580643
0.0580643
0.0580642
0.0580642
0.0580641
0.058064
0.058064
0.0580639
0.0580639
0.0580638
0.0580637
0.0580636
0.0580636
0.0580635
0.0580634
0.0580633
0.0580632
0.0580631
0.058063
0.0580629
0.0580628
0.0580627
0.0580626
0.0580625
0.0580623
0.0580622
0.0580621
0.0580619
0.0580617
0.0580616
0.0580614
0.0580612
0.058061
0.0580607
0.0580605
0.0580602
0.0580599
0.0580596
0.0580593
0.0580589
0.0580585
0.0580581
0.0580576
0.0580571
0.0580565
0.0580558
0.058055
0.0580542
0.0580532
0.058052
0.0580507
0.0580491
0.0580472
0.0580449
0.0580421
0.0580386
0.058034
0.058028
0.0580196
0.0580077
0.0579894
0.0579584
0.0579003
0.0577774
0.057464
0.0564635
0.052647
0.0278279
0.0137656
0.00679856
0.00335766
0.00166108
0.000823707
0.000409353
0.000203763
0.000101531
5.06191e-05
2.52418e-05
1.25871e-05
6.27595e-06
3.12864e-06
1.55937e-06
7.77091e-07
3.87214e-07
1.92938e-07
9.6162e-08
4.79436e-08
2.3934e-08
1.19856e-08
6.03108e-09
3.04032e-09
1.62637e-09
9.5809e-10
6.55885e-10
3.91017e-10
2.49976e-10
1.859e-10
1.63952e-10
1.42845e-10
1.33062e-10
1.29694e-10
1.2612e-10
1.24713e-10
1.2364e-10
1.23009e-10
1.22812e-10
1.22612e-10
1.2251e-10
1.22452e-10
1.2242e-10
1.22403e-10
1.2239e-10
1.22385e-10
1.22383e-10
1.22381e-10
1.2238e-10
1.2238e-10
1.2238e-10
1.2238e-10
1.2238e-10
1.22381e-10
1.22381e-10
1.22381e-10
1.22382e-10
1.22382e-10
1.22383e-10
1.22383e-10
1.22384e-10
1.22384e-10
1.22385e-10
1.22385e-10
1.22385e-10
1.22386e-10
1.22386e-10
1.22387e-10
1.22387e-10
1.22387e-10
1.22388e-10
1.22388e-10
1.22389e-10
1.22389e-10
1.22389e-10
1.2239e-10
1.2239e-10
1.22391e-10
1.22391e-10
1.22392e-10
1.22392e-10
1.22393e-10
1.22393e-10
1.22393e-10
1.22394e-10
1.22394e-10
1.22395e-10
1.22395e-10
1.22395e-10
1.22396e-10
1.22396e-10
1.22397e-10
1.22397e-10
1.22397e-10
1.22398e-10
1.22399e-10
1.22399e-10
1.22399e-10
1.224e-10
1.224e-10
1.22401e-10
1.22401e-10
1.22401e-10
1.22402e-10
1.22403e-10
1.22403e-10
1.22403e-10
1.22404e-10
1.22404e-10
1.22405e-10
1.22405e-10
1.22406e-10
1.22406e-10
1.22406e-10
1.22407e-10
1.22407e-10
1.22408e-10
1.22408e-10
1.22409e-10
1.22409e-10
1.22409e-10
1.2241e-10
1.2241e-10
1.22411e-10
1.22411e-10
1.22411e-10
1.22412e-10
1.22413e-10
1.22413e-10
1.22413e-10
1.22414e-10
1.22414e-10
1.22415e-10
1.22415e-10
1.22416e-10
1.22416e-10
1.22416e-10
1.22417e-10
1.22417e-10
1.22418e-10
1.22418e-10
1.22418e-10
1.22419e-10
1.22419e-10
1.2242e-10
1.2242e-10
1.2242e-10
1.22421e-10
1.22421e-10
1.22422e-10
1.22422e-10
1.22423e-10
1.22423e-10
1.22423e-10
1.22424e-10
1.22424e-10
1.22425e-10
1.22425e-10
1.22426e-10
1.22426e-10
1.22427e-10
1.22427e-10
1.22428e-10
1.22428e-10
1.22428e-10
1.22429e-10
1.22429e-10
1.2243e-10
1.22431e-10
1.22431e-10
1.22432e-10
1.22432e-10
1.22432e-10
1.22433e-10
1.22433e-10
1.22434e-10
1.22434e-10
1.22435e-10
1.22435e-10
1.22436e-10
1.22436e-10
1.22436e-10
1.22437e-10
1.22437e-10
1.22438e-10
1.22438e-10
1.22439e-10
1.22439e-10
1.22439e-10
1.2244e-10
1.2244e-10
1.22441e-10
1.22441e-10
1.22442e-10
1.22442e-10
1.22443e-10
1.22443e-10
1.22443e-10
1.22444e-10
1.22444e-10
1.22445e-10
1.22445e-10
1.22446e-10
1.22446e-10
1.22446e-10
1.22447e-10
1.22447e-10
1.22448e-10
1.22448e-10
1.22448e-10
1.22449e-10
1.2245e-10
1.2245e-10
1.22451e-10
1.22451e-10
1.22452e-10
1.22452e-10
1.22452e-10
1.22453e-10
1.22453e-10
1.22454e-10
1.22454e-10
1.22455e-10
1.22455e-10
1.22455e-10
1.22456e-10
1.22456e-10
1.22457e-10
1.22457e-10
1.22458e-10
1.22458e-10
1.22458e-10
1.22459e-10
1.22459e-10
1.2246e-10
1.2246e-10
1.22461e-10
1.22461e-10
1.22462e-10
1.22462e-10
1.22463e-10
1.22463e-10
1.22464e-10
1.22464e-10
1.22464e-10
1.22465e-10
1.22465e-10
1.22466e-10
1.22466e-10
1.22467e-10
1.22467e-10
1.22467e-10
1.22468e-10
1.22468e-10
1.22469e-10
1.22469e-10
1.2247e-10
1.2247e-10
1.22471e-10
1.22471e-10
1.22472e-10
1.22472e-10
1.22473e-10
1.22473e-10
1.22473e-10
1.22474e-10
1.22474e-10
1.22475e-10
1.22475e-10
1.22476e-10
1.22476e-10
1.22476e-10
1.22477e-10
1.22477e-10
1.22478e-10
1.22478e-10
1.22479e-10
1.22479e-10
1.2248e-10
1.2248e-10
1.22481e-10
1.22481e-10
1.22481e-10
1.22482e-10
1.22482e-10
1.22483e-10
1.22483e-10
1.22484e-10
1.22484e-10
1.22485e-10
1.22485e-10
1.22485e-10
1.22486e-10
1.22486e-10
1.22487e-10
1.22487e-10
1.22488e-10
1.22488e-10
1.22489e-10
1.22489e-10
1.2249e-10
1.2249e-10
1.2249e-10
1.22491e-10
1.22491e-10
1.22492e-10
1.22492e-10
1.22493e-10
1.22493e-10
1.22494e-10
1.22494e-10
1.22495e-10
1.22495e-10
1.22496e-10
1.22496e-10
1.22497e-10
1.22497e-10
1.22497e-10
1.22498e-10
1.22498e-10
1.22499e-10
1.22499e-10
1.225e-10
1.225e-10
1.22501e-10
1.22501e-10
1.22502e-10
1.22502e-10
1.22503e-10
1.22503e-10
1.22503e-10
1.22504e-10
1.22504e-10
1.22505e-10
1.22505e-10
1.22506e-10
1.22506e-10
1.22506e-10
1.22507e-10
1.22507e-10
1.22508e-10
1.22508e-10
1.22509e-10
1.22509e-10
1.2251e-10
1.2251e-10
1.22511e-10
1.22511e-10
1.22512e-10
1.22512e-10
1.22513e-10
1.22513e-10
1.22514e-10
1.22514e-10
1.22515e-10
1.22515e-10
1.22516e-10
1.22516e-10
1.22516e-10
1.22517e-10
1.22517e-10
1.22518e-10
1.22518e-10
1.22519e-10
1.22519e-10
1.22519e-10
1.2252e-10
1.2252e-10
1.22521e-10
1.22521e-10
1.22522e-10
1.22522e-10
1.22523e-10
1.22523e-10
1.22524e-10
1.22524e-10
1.22524e-10
1.22525e-10
1.22525e-10
1.22526e-10
1.22526e-10
1.22527e-10
1.22527e-10
1.22528e-10
1.22528e-10
1.22529e-10
1.22529e-10
1.22529e-10
1.2253e-10
1.22531e-10
1.22531e-10
1.22531e-10
1.22532e-10
1.22532e-10
1.22533e-10
1.22533e-10
1.22534e-10
1.22534e-10
1.22535e-10
1.22535e-10
1.22536e-10
1.22536e-10
1.22536e-10
1.22537e-10
1.22537e-10
1.22538e-10
1.22538e-10
1.22539e-10
1.22539e-10
1.2254e-10
1.2254e-10
)
;

boundaryField
{
    fixedWall
    {
        type            zeroGradient;
    }
    outlet
    {
        type            inletOutlet;
        inletValue      uniform 0;
        value           uniform 1.2254e-10;
    }
    defaultFaces
    {
        type            empty;
    }
}


// ************************************************************************* //
