/*--------------------------------*- C++ -*----------------------------------*\
| =========                 |                                                 |
| \\      /  F ield         | OpenFOAM: The Open Source CFD Toolbox           |
|  \\    /   O peration     | Version:  2406                                  |
|   \\  /    A nd           | Website:  www.openfoam.com                      |
|    \\/     M anipulation  |                                                 |
\*---------------------------------------------------------------------------*/
FoamFile
{
    version     2.0;
    format      ascii;
    arch        "LSB;label=32;scalar=64";
    class       volScalarField;
    location    "3.7";
    object      O2;
}
// * * * * * * * * * * * * * * * * * * * * * * * * * * * * * * * * * * * * * //

dimensions      [0 0 0 0 0 0 0];

internalField   nonuniform List<scalar> 
1000
(
1.58464e-06
1.58084e-06
1.57424e-06
1.56544e-06
1.55482e-06
1.54264e-06
1.52911e-06
1.51437e-06
1.49856e-06
1.48178e-06
1.46411e-06
1.44563e-06
1.42642e-06
1.40653e-06
1.38603e-06
1.36498e-06
1.34344e-06
1.32145e-06
1.29909e-06
1.27641e-06
1.25347e-06
1.23033e-06
1.20706e-06
1.18372e-06
1.16037e-06
1.13708e-06
1.11391e-06
1.09093e-06
1.06818e-06
1.04574e-06
1.02365e-06
1.00196e-06
9.80727e-07
9.59985e-07
9.39774e-07
9.20129e-07
9.01079e-07
8.82648e-07
8.64856e-07
8.47718e-07
8.31246e-07
8.15448e-07
8.00326e-07
7.85881e-07
7.72111e-07
7.59008e-07
7.46565e-07
7.3477e-07
7.23612e-07
7.13075e-07
7.03143e-07
6.938e-07
6.85027e-07
6.76805e-07
6.69115e-07
6.61937e-07
6.55251e-07
6.49036e-07
6.43272e-07
6.3794e-07
6.33018e-07
6.28489e-07
6.24332e-07
6.20528e-07
6.17061e-07
6.13911e-07
6.11062e-07
6.08497e-07
6.062e-07
6.04156e-07
6.0235e-07
6.00768e-07
5.99397e-07
5.98223e-07
5.97234e-07
5.9642e-07
5.95768e-07
5.95268e-07
5.9491e-07
5.94687e-07
5.94587e-07
5.94601e-07
5.94723e-07
5.94945e-07
5.9526e-07
5.95662e-07
5.96144e-07
5.967e-07
5.97326e-07
5.98017e-07
5.98766e-07
5.99571e-07
6.00427e-07
6.0133e-07
6.02276e-07
6.03263e-07
6.04287e-07
6.05346e-07
6.06436e-07
6.07556e-07
6.08702e-07
6.09874e-07
6.1107e-07
6.12286e-07
6.13523e-07
6.14778e-07
6.1605e-07
6.17338e-07
6.18641e-07
6.19957e-07
6.21286e-07
6.22628e-07
6.2398e-07
6.25343e-07
6.26716e-07
6.28099e-07
6.2949e-07
6.3089e-07
6.32299e-07
6.33714e-07
6.35138e-07
6.36568e-07
6.38006e-07
6.3945e-07
6.40901e-07
6.42359e-07
6.43823e-07
6.45293e-07
6.4677e-07
6.48247e-07
6.49724e-07
6.51222e-07
6.52726e-07
6.54236e-07
6.55751e-07
6.57272e-07
6.58799e-07
6.60331e-07
6.6187e-07
6.63415e-07
6.64966e-07
6.66524e-07
6.68088e-07
6.69659e-07
6.71236e-07
6.7282e-07
6.7441e-07
6.76007e-07
6.77612e-07
6.79223e-07
6.80842e-07
6.82467e-07
6.841e-07
6.8574e-07
6.87388e-07
6.89043e-07
6.90706e-07
6.92376e-07
6.94054e-07
6.9574e-07
6.97434e-07
6.99136e-07
7.00846e-07
7.02564e-07
7.04291e-07
7.06026e-07
7.07769e-07
7.09521e-07
7.11281e-07
7.1305e-07
7.14828e-07
7.16614e-07
7.18409e-07
7.20214e-07
7.22027e-07
7.2385e-07
7.25682e-07
7.27523e-07
7.29373e-07
7.31233e-07
7.33103e-07
7.34982e-07
7.3687e-07
7.38769e-07
7.40677e-07
7.42595e-07
7.44523e-07
7.46461e-07
7.4841e-07
7.50368e-07
7.52337e-07
7.54316e-07
7.56306e-07
7.58306e-07
7.60317e-07
7.62338e-07
7.6437e-07
7.66413e-07
7.68467e-07
7.70531e-07
7.72607e-07
7.74694e-07
7.76792e-07
7.78901e-07
7.81021e-07
7.83153e-07
7.85297e-07
7.87452e-07
7.89618e-07
7.91796e-07
7.93986e-07
7.96188e-07
7.98402e-07
8.00628e-07
8.02866e-07
8.05116e-07
8.07379e-07
8.09654e-07
8.11941e-07
8.14241e-07
8.16553e-07
8.18879e-07
8.21217e-07
8.23568e-07
8.25932e-07
8.28309e-07
8.30699e-07
8.33103e-07
8.3552e-07
8.37951e-07
8.40395e-07
8.42854e-07
8.45326e-07
8.47812e-07
8.50312e-07
8.52827e-07
8.55356e-07
8.579e-07
8.60458e-07
8.63031e-07
8.65619e-07
8.68222e-07
8.7084e-07
8.73473e-07
8.76122e-07
8.78787e-07
8.81467e-07
8.84163e-07
8.86875e-07
8.89604e-07
8.92348e-07
8.95109e-07
8.97887e-07
9.00681e-07
9.03492e-07
9.0632e-07
9.09166e-07
9.12028e-07
9.14908e-07
9.17806e-07
9.20721e-07
9.23654e-07
9.26606e-07
9.29575e-07
9.32563e-07
9.35569e-07
9.38594e-07
9.41637e-07
9.447e-07
9.47782e-07
9.50883e-07
9.54004e-07
9.57144e-07
9.60304e-07
9.63484e-07
9.66685e-07
9.69906e-07
9.73147e-07
9.7641e-07
9.79693e-07
9.82998e-07
9.86324e-07
9.89672e-07
9.93042e-07
9.96434e-07
9.99849e-07
1.00329e-06
1.00675e-06
1.01023e-06
1.01374e-06
1.01727e-06
1.02082e-06
1.0244e-06
1.02801e-06
1.03163e-06
1.03528e-06
1.03893e-06
1.04263e-06
1.04637e-06
1.05013e-06
1.05391e-06
1.05773e-06
1.06157e-06
1.06544e-06
1.06934e-06
1.07327e-06
1.07723e-06
1.08121e-06
1.08523e-06
1.08928e-06
1.09335e-06
1.09746e-06
1.1016e-06
1.10577e-06
1.10997e-06
1.11421e-06
1.11848e-06
1.12278e-06
1.12711e-06
1.13148e-06
1.13588e-06
1.14032e-06
1.14479e-06
1.1493e-06
1.15385e-06
1.15843e-06
1.16304e-06
1.1677e-06
1.17239e-06
1.17712e-06
1.18189e-06
1.1867e-06
1.19154e-06
1.19643e-06
1.20136e-06
1.20632e-06
1.21133e-06
1.21638e-06
1.22147e-06
1.2266e-06
1.23178e-06
1.23699e-06
1.24226e-06
1.24756e-06
1.25291e-06
1.2583e-06
1.26374e-06
1.26923e-06
1.27476e-06
1.28034e-06
1.28596e-06
1.29164e-06
1.29736e-06
1.30313e-06
1.30895e-06
1.31482e-06
1.32074e-06
1.32672e-06
1.33274e-06
1.33882e-06
1.34496e-06
1.35114e-06
1.35739e-06
1.36369e-06
1.37004e-06
1.37646e-06
1.38293e-06
1.38946e-06
1.39605e-06
1.40271e-06
1.40942e-06
1.4162e-06
1.42305e-06
1.42996e-06
1.43693e-06
1.44398e-06
1.45109e-06
1.45827e-06
1.46552e-06
1.47285e-06
1.48024e-06
1.48772e-06
1.49526e-06
1.50289e-06
1.51059e-06
1.51837e-06
1.52623e-06
1.53418e-06
1.54221e-06
1.55032e-06
1.55852e-06
1.5668e-06
1.57518e-06
1.58364e-06
1.5922e-06
1.60085e-06
1.6096e-06
1.61844e-06
1.62738e-06
1.63642e-06
1.64557e-06
1.65482e-06
1.66417e-06
1.67363e-06
1.68321e-06
1.69289e-06
1.70262e-06
1.71245e-06
1.72247e-06
1.73262e-06
1.74289e-06
1.75329e-06
1.76381e-06
1.77446e-06
1.78525e-06
1.79617e-06
1.80723e-06
1.81843e-06
1.82977e-06
1.84127e-06
1.85291e-06
1.8647e-06
1.87665e-06
1.88876e-06
1.90103e-06
1.91347e-06
1.92607e-06
1.93884e-06
1.95178e-06
1.9649e-06
1.97819e-06
1.99167e-06
2.00533e-06
2.01917e-06
2.0332e-06
2.04743e-06
2.06184e-06
2.07646e-06
2.09127e-06
2.10629e-06
2.12151e-06
2.13694e-06
2.15259e-06
2.16845e-06
2.18454e-06
2.20085e-06
2.21739e-06
2.23415e-06
2.25114e-06
2.26825e-06
2.28574e-06
2.3035e-06
2.32154e-06
2.33984e-06
2.35843e-06
2.37731e-06
2.39649e-06
2.41597e-06
2.43576e-06
2.45587e-06
2.47631e-06
2.49709e-06
2.51822e-06
2.5397e-06
2.56155e-06
2.58378e-06
2.6064e-06
2.62941e-06
2.65284e-06
2.67669e-06
2.70097e-06
2.7257e-06
2.75089e-06
2.77656e-06
2.80271e-06
2.82936e-06
2.85654e-06
2.88424e-06
2.9125e-06
2.94133e-06
2.97075e-06
3.00077e-06
3.03141e-06
3.06265e-06
3.09431e-06
3.12682e-06
3.16011e-06
3.19417e-06
3.22899e-06
3.2646e-06
3.30101e-06
3.33824e-06
3.37634e-06
3.41532e-06
3.45522e-06
3.49606e-06
3.53787e-06
3.5807e-06
3.62455e-06
3.66949e-06
3.71552e-06
3.7627e-06
3.81106e-06
3.86064e-06
3.91148e-06
3.96363e-06
4.01711e-06
4.07199e-06
4.1283e-06
4.18598e-06
4.2449e-06
4.30581e-06
4.36849e-06
4.43294e-06
4.49925e-06
4.56752e-06
4.63783e-06
4.71029e-06
4.78502e-06
4.86214e-06
4.94178e-06
5.02408e-06
5.1092e-06
5.1973e-06
5.28854e-06
5.38305e-06
5.48059e-06
5.58158e-06
5.68715e-06
5.79695e-06
5.91112e-06
6.0299e-06
6.15356e-06
6.28238e-06
6.41665e-06
6.5567e-06
6.70286e-06
6.85552e-06
7.01506e-06
7.18195e-06
7.35666e-06
7.53973e-06
7.73173e-06
7.9332e-06
8.14414e-06
8.3654e-06
8.60002e-06
8.84782e-06
9.10969e-06
9.38687e-06
9.68073e-06
9.99286e-06
1.0325e-05
1.06791e-05
1.10575e-05
1.14627e-05
1.18976e-05
1.23656e-05
1.28705e-05
1.34171e-05
1.40106e-05
1.46575e-05
1.53646e-05
1.61377e-05
1.69968e-05
1.79517e-05
1.90182e-05
2.02168e-05
2.15724e-05
2.31157e-05
2.4885e-05
2.69287e-05
2.93098e-05
3.21126e-05
3.54536e-05
3.94985e-05
4.44886e-05
5.07799e-05
5.89046e-05
6.96794e-05
8.44392e-05
0.000105608
0.000138152
0.000193152
0.000296446
0.000514664
0.00107143
0.00284843
0.00962728
0.053711
0.0786886
0.0910634
0.0971751
0.100189
0.101676
0.102412
0.102777
0.102959
0.103049
0.103094
0.103117
0.103128
0.103133
0.103136
0.103138
0.103138
0.103139
0.103139
0.103139
0.103139
0.103139
0.103139
0.103139
0.103139
0.103139
0.103139
0.103139
0.103139
0.103139
0.103139
0.103139
0.103139
0.103139
0.103139
0.103139
0.103139
0.103139
0.103139
0.103139
0.103139
0.103139
0.103139
0.103139
0.103139
0.103139
0.103139
0.103139
0.103139
0.103139
0.103139
0.103139
0.103139
0.103139
0.103139
0.103139
0.103139
0.103139
0.103139
0.103139
0.103139
0.103139
0.103139
0.103139
0.103139
0.103139
0.103139
0.103139
0.103139
0.103139
0.103139
0.103139
0.103139
0.103139
0.103139
0.103139
0.103139
0.103139
0.103139
0.103139
0.103139
0.103139
0.103139
0.103139
0.103139
0.103139
0.103139
0.103139
0.103139
0.103139
0.103139
0.103139
0.103139
0.103139
0.103139
0.103139
0.103139
0.103139
0.103139
0.103139
0.103139
0.103139
0.103139
0.103139
0.103139
0.103139
0.103139
0.103139
0.103139
0.103139
0.103139
0.103139
0.103139
0.103139
0.103139
0.103139
0.103139
0.103139
0.103139
0.103139
0.103139
0.103139
0.103139
0.103139
0.103139
0.103139
0.103139
0.103139
0.103139
0.103139
0.103139
0.103139
0.103139
0.103139
0.103139
0.103139
0.103139
0.103139
0.103139
0.103139
0.103139
0.103139
0.103139
0.103139
0.103139
0.103139
0.103139
0.103139
0.103139
0.103139
0.103139
0.103139
0.103139
0.103139
0.103139
0.103139
0.103139
0.103139
0.103139
0.103139
0.103139
0.103139
0.103139
0.103139
0.103139
0.103139
0.103139
0.103139
0.103139
0.103139
0.103139
0.103139
0.103139
0.103139
0.103139
0.103139
0.103139
0.103139
0.103139
0.103139
0.103139
0.103139
0.103139
0.103139
0.103139
0.103139
0.103139
0.103139
0.103139
0.103139
0.103139
0.103139
0.103139
0.103139
0.103139
0.103139
0.103139
0.103139
0.103139
0.103139
0.103139
0.103139
0.103139
0.103139
0.103139
0.103139
0.103139
0.103139
0.103139
0.103139
0.103139
0.103139
0.103139
0.103139
0.103139
0.103139
0.103139
0.103139
0.103139
0.103139
0.103139
0.103139
0.103139
0.103139
0.103139
0.103139
0.103139
0.103139
0.103139
0.103139
0.103139
0.103139
0.103139
0.103139
0.103139
0.103139
0.103139
0.103139
0.103139
0.103139
0.103139
0.103139
0.103139
0.103139
0.103139
0.103139
0.103139
0.103139
0.103139
0.103139
0.103139
0.103139
0.103139
0.103139
0.103139
0.103139
0.103139
0.103139
0.103139
0.103139
0.103139
0.103139
0.103139
0.103139
0.103139
0.103139
0.103139
0.103139
0.103139
0.103139
0.103139
0.103139
0.103139
0.103139
0.103139
0.103139
0.103139
0.103139
0.103139
0.103139
0.103139
0.103139
0.103139
0.103139
0.103139
0.103139
0.103139
0.103139
0.103139
0.103139
0.103139
0.103139
0.103139
0.103139
0.103139
0.103139
0.103139
0.103139
0.103139
0.103139
0.103139
0.103139
0.103139
0.103139
0.103139
0.103139
0.103139
0.103139
0.103139
0.103139
0.103139
0.103139
0.103139
0.103139
0.103139
0.103139
0.103139
0.103139
0.103139
0.103139
0.103139
0.103139
0.103139
0.103139
0.103139
0.103139
0.103139
0.103139
0.103139
0.103139
0.103139
0.103139
0.103139
0.103139
0.103139
0.103139
0.103139
0.103139
0.103139
0.103139
0.103139
0.103139
0.103139
0.103139
0.103139
0.103139
0.103139
0.103139
0.103139
0.103139
0.103139
0.103139
0.103139
0.103139
0.103139
0.103139
0.103139
0.103139
0.103139
0.103139
0.103139
0.103139
0.103139
0.103139
0.103139
0.103139
0.103139
0.103139
0.103139
0.103139
0.103139
0.103139
0.103139
0.103139
0.103139
0.103139
0.103139
0.103139
0.103139
0.103139
0.103139
0.103139
0.103139
0.103139
0.103139
0.103139
0.103139
0.103139
0.103139
0.103139
0.103139
0.103139
0.103139
0.103139
0.103139
0.103139
0.103139
0.103139
0.103139
0.103139
0.103139
0.103139
0.103139
0.103139
0.103139
0.103139
0.103139
0.103139
0.103139
0.103139
0.103139
)
;

boundaryField
{
    fixedWall
    {
        type            zeroGradient;
    }
    outlet
    {
        type            inletOutlet;
        inletValue      uniform 0;
        value           uniform 0.103139;
    }
    defaultFaces
    {
        type            empty;
    }
}


// ************************************************************************* //
