/*--------------------------------*- C++ -*----------------------------------*\
| =========                 |                                                 |
| \\      /  F ield         | OpenFOAM: The Open Source CFD Toolbox           |
|  \\    /   O peration     | Version:  2406                                  |
|   \\  /    A nd           | Website:  www.openfoam.com                      |
|    \\/     M anipulation  |                                                 |
\*---------------------------------------------------------------------------*/
FoamFile
{
    version     2.0;
    format      ascii;
    arch        "LSB;label=32;scalar=64";
    class       volScalarField;
    location    "3.7";
    object      T;
}
// * * * * * * * * * * * * * * * * * * * * * * * * * * * * * * * * * * * * * //

dimensions      [0 0 0 1 0 0 0];

internalField   nonuniform List<scalar> 
1000
(
314.999
353.425
387.495
418.196
446.184
471.918
495.739
517.907
538.625
558.057
576.336
593.572
609.857
625.272
639.883
653.749
666.922
679.448
691.366
702.714
713.523
723.824
733.643
743.004
751.932
760.446
768.567
776.312
783.698
790.742
797.459
803.862
809.965
815.781
821.323
826.6
831.626
836.409
840.961
845.29
849.406
853.319
857.035
860.565
863.915
867.093
870.107
872.963
875.669
878.23
880.654
882.947
885.114
887.161
889.093
890.916
892.635
894.255
895.781
897.216
898.566
899.835
901.027
902.145
903.194
904.177
905.098
905.959
906.765
907.517
908.22
908.875
909.486
910.055
910.584
911.077
911.534
911.958
912.352
912.714
913.05
913.362
913.65
913.917
914.162
914.388
914.596
914.788
914.963
915.124
915.272
915.407
915.53
915.643
915.745
915.839
915.923
916
916.07
916.134
916.191
916.242
916.289
916.33
916.368
916.401
916.431
916.458
916.481
916.502
916.521
916.537
916.552
916.565
916.576
916.585
916.593
916.601
916.607
916.612
916.616
916.62
916.623
916.625
916.627
916.629
916.63
916.631
916.631
916.631
916.632
916.632
916.631
916.631
916.631
916.63
916.63
916.629
916.628
916.628
916.627
916.626
916.626
916.625
916.625
916.624
916.623
916.623
916.622
916.622
916.621
916.62
916.62
916.619
916.619
916.618
916.618
916.617
916.617
916.617
916.616
916.616
916.615
916.615
916.614
916.614
916.613
916.613
916.612
916.612
916.611
916.611
916.61
916.609
916.609
916.608
916.607
916.607
916.606
916.605
916.605
916.604
916.603
916.602
916.601
916.6
916.599
916.598
916.597
916.596
916.595
916.594
916.593
916.592
916.591
916.59
916.589
916.587
916.586
916.585
916.584
916.582
916.581
916.58
916.578
916.577
916.575
916.574
916.573
916.571
916.57
916.568
916.567
916.565
916.564
916.562
916.561
916.559
916.558
916.556
916.554
916.553
916.551
916.55
916.548
916.547
916.545
916.543
916.542
916.54
916.539
916.537
916.536
916.534
916.533
916.531
916.53
916.528
916.527
916.525
916.524
916.522
916.521
916.519
916.518
916.516
916.515
916.514
916.512
916.511
916.509
916.508
916.507
916.505
916.504
916.503
916.502
916.501
916.499
916.498
916.497
916.496
916.495
916.494
916.493
916.492
916.491
916.49
916.489
916.488
916.487
916.486
916.486
916.485
916.484
916.484
916.483
916.482
916.482
916.481
916.481
916.48
916.48
916.479
916.479
916.479
916.478
916.478
916.478
916.478
916.478
916.477
916.477
916.477
916.477
916.477
916.477
916.477
916.477
916.477
916.477
916.477
916.477
916.478
916.478
916.478
916.478
916.478
916.478
916.479
916.479
916.479
916.479
916.48
916.48
916.48
916.48
916.481
916.481
916.481
916.482
916.482
916.482
916.482
916.483
916.483
916.483
916.484
916.484
916.485
916.485
916.485
916.486
916.486
916.486
916.487
916.487
916.488
916.488
916.489
916.489
916.49
916.49
916.491
916.491
916.492
916.492
916.493
916.494
916.494
916.495
916.496
916.497
916.497
916.498
916.499
916.5
916.501
916.501
916.502
916.503
916.504
916.505
916.506
916.507
916.508
916.509
916.51
916.511
916.512
916.513
916.515
916.516
916.517
916.518
916.519
916.52
916.521
916.522
916.523
916.525
916.526
916.527
916.528
916.529
916.53
916.531
916.532
916.533
916.534
916.535
916.535
916.536
916.537
916.538
916.539
916.539
916.54
916.541
916.541
916.542
916.542
916.542
916.543
916.543
916.543
916.543
916.543
916.543
916.543
916.543
916.542
916.542
916.541
916.541
916.54
916.539
916.538
916.537
916.535
916.534
916.533
916.531
916.529
916.527
916.525
916.523
916.521
916.519
916.517
916.515
916.512
916.51
916.508
916.505
916.503
916.501
916.499
916.496
916.494
916.493
916.491
916.489
916.488
916.487
916.486
916.485
916.484
916.484
916.483
916.483
916.484
916.484
916.485
916.486
916.487
916.488
916.49
916.491
916.493
916.495
916.497
916.499
916.502
916.504
916.506
916.509
916.511
916.514
916.516
916.518
916.521
916.523
916.525
916.528
916.53
916.531
916.533
916.535
916.536
916.537
916.538
916.539
916.54
916.54
916.54
916.539
916.539
916.538
916.537
916.536
916.534
916.532
916.53
916.527
916.525
916.522
916.52
916.517
916.514
916.511
916.508
916.505
916.503
916.501
916.499
916.497
916.495
916.494
916.494
916.493
916.493
916.494
916.495
916.496
916.498
916.5
916.502
916.505
916.507
916.51
916.512
916.514
916.517
916.518
916.519
916.52
916.52
916.52
916.518
916.516
916.513
916.51
916.506
916.501
916.496
916.491
916.486
916.48
916.475
916.471
916.467
916.463
916.461
916.46
916.46
916.46
916.462
916.465
916.469
916.474
916.479
916.485
916.491
916.498
916.504
916.509
916.515
916.52
916.524
916.528
916.531
916.533
916.534
916.533
916.53
916.524
916.515
916.501
916.482
916.457
916.426
916.389
916.348
916.305
916.26
916.214
916.167
916.115
916.053
915.974
915.874
915.749
915.581
915.289
914.58
912.473
905.412
877.789
674.564
521.254
423.318
364.972
332.019
313.963
304.213
298.982
296.183
294.686
293.887
293.46
293.232
293.111
293.046
293.011
292.993
292.983
292.978
292.975
292.974
292.973
292.972
292.972
292.972
292.972
292.972
292.972
292.972
292.972
292.972
292.972
292.972
292.972
292.972
292.973
292.973
292.973
292.973
292.973
292.973
292.973
292.973
292.973
292.973
292.973
292.973
292.973
292.973
292.973
292.973
292.973
292.973
292.973
292.973
292.973
292.974
292.974
292.974
292.974
292.974
292.974
292.974
292.974
292.974
292.974
292.974
292.974
292.974
292.974
292.974
292.974
292.974
292.974
292.974
292.974
292.974
292.975
292.975
292.975
292.975
292.975
292.975
292.975
292.975
292.975
292.975
292.975
292.975
292.975
292.975
292.975
292.975
292.975
292.975
292.975
292.975
292.975
292.976
292.976
292.976
292.976
292.976
292.976
292.976
292.976
292.976
292.976
292.976
292.976
292.976
292.976
292.976
292.976
292.976
292.976
292.976
292.976
292.977
292.977
292.977
292.977
292.977
292.977
292.977
292.977
292.977
292.977
292.977
292.977
292.977
292.977
292.977
292.977
292.977
292.977
292.977
292.977
292.977
292.978
292.978
292.978
292.978
292.978
292.978
292.978
292.978
292.978
292.978
292.978
292.978
292.978
292.978
292.978
292.978
292.978
292.978
292.978
292.978
292.978
292.979
292.979
292.979
292.979
292.979
292.979
292.979
292.979
292.979
292.979
292.979
292.979
292.979
292.979
292.979
292.979
292.979
292.979
292.979
292.979
292.98
292.98
292.98
292.98
292.98
292.98
292.98
292.98
292.98
292.98
292.98
292.98
292.98
292.98
292.98
292.98
292.98
292.98
292.98
292.98
292.98
292.981
292.981
292.981
292.981
292.981
292.981
292.981
292.981
292.981
292.981
292.981
292.981
292.981
292.981
292.981
292.981
292.981
292.981
292.981
292.981
292.981
292.982
292.982
292.982
292.982
292.982
292.982
292.982
292.982
292.982
292.982
292.982
292.982
292.982
292.982
292.982
292.982
292.982
292.982
292.982
292.982
292.983
292.983
292.983
292.983
292.983
292.983
292.983
292.983
292.983
292.983
292.983
292.983
292.983
292.983
292.983
292.983
292.983
292.983
292.983
292.983
292.983
292.984
292.984
292.984
292.984
292.984
292.984
292.984
292.984
292.984
292.984
292.984
292.984
292.984
292.984
292.984
292.984
292.984
292.984
292.984
292.984
292.984
292.985
292.985
292.985
292.985
292.985
292.985
292.985
292.985
292.985
292.985
292.985
292.985
292.985
292.985
292.985
292.985
292.985
292.985
292.985
292.985
292.985
292.986
292.986
292.986
292.986
292.986
292.986
292.986
292.986
292.986
292.986
292.986
292.986
292.986
292.986
292.986
292.986
292.986
292.986
292.986
292.986
292.986
292.987
292.987
292.987
292.987
292.987
292.987
292.987
292.987
292.987
292.987
292.987
292.987
292.987
292.987
292.987
292.987
292.987
292.987
292.987
292.987
292.988
292.988
292.988
292.988
292.988
292.988
292.988
292.988
292.988
292.988
292.988
292.988
292.988
292.988
292.988
292.988
292.988
292.988
292.988
292.988
292.988
292.989
292.989
292.989
292.989
292.989
292.989
292.989
292.989
292.989
292.989
292.989
292.989
292.989
292.989
292.989
292.989
292.989
292.989
292.989
292.989
292.989
292.99
292.99
292.99
292.99
292.99
292.99
292.99
292.99
292.99
292.99
292.99
292.99
292.99
292.99
292.99
292.99
292.99
292.99
292.99
292.99
292.99
292.991
292.991
)
;

boundaryField
{
    fixedWall
    {
        type            fixedValue;
        value           uniform 293;
    }
    outlet
    {
        type            inletOutlet;
        inletValue      uniform 293;
        value           uniform 292.991;
    }
    defaultFaces
    {
        type            empty;
    }
}


// ************************************************************************* //
