/*--------------------------------*- C++ -*----------------------------------*\
| =========                 |                                                 |
| \\      /  F ield         | OpenFOAM: The Open Source CFD Toolbox           |
|  \\    /   O peration     | Version:  2406                                  |
|   \\  /    A nd           | Website:  www.openfoam.com                      |
|    \\/     M anipulation  |                                                 |
\*---------------------------------------------------------------------------*/
FoamFile
{
    version     2.0;
    format      ascii;
    arch        "LSB;label=32;scalar=64";
    class       volScalarField;
    location    "4.4";
    object      CO2;
}
// * * * * * * * * * * * * * * * * * * * * * * * * * * * * * * * * * * * * * //

dimensions      [0 0 0 0 0 0 0];

internalField   nonuniform List<scalar> 
1000
(
0.0709258
0.0709258
0.0709258
0.0709258
0.0709258
0.0709258
0.0709258
0.0709258
0.0709259
0.0709259
0.0709259
0.0709259
0.0709259
0.0709259
0.0709259
0.0709259
0.070926
0.070926
0.070926
0.070926
0.070926
0.070926
0.0709261
0.0709261
0.0709261
0.0709261
0.0709261
0.0709261
0.0709261
0.0709262
0.0709262
0.0709262
0.0709262
0.0709262
0.0709262
0.0709262
0.0709263
0.0709263
0.0709263
0.0709263
0.0709263
0.0709263
0.0709263
0.0709263
0.0709263
0.0709264
0.0709264
0.0709264
0.0709264
0.0709264
0.0709264
0.0709264
0.0709264
0.0709264
0.0709264
0.0709264
0.0709264
0.0709264
0.0709265
0.0709265
0.0709265
0.0709265
0.0709265
0.0709265
0.0709265
0.0709265
0.0709265
0.0709265
0.0709265
0.0709265
0.0709265
0.0709265
0.0709265
0.0709265
0.0709265
0.0709265
0.0709265
0.0709265
0.0709265
0.0709265
0.0709265
0.0709265
0.0709265
0.0709265
0.0709265
0.0709265
0.0709265
0.0709265
0.0709265
0.0709265
0.0709265
0.0709265
0.0709265
0.0709265
0.0709265
0.0709265
0.0709265
0.0709265
0.0709265
0.0709265
0.0709265
0.0709265
0.0709265
0.0709265
0.0709265
0.0709265
0.0709265
0.0709265
0.0709265
0.0709265
0.0709265
0.0709265
0.0709265
0.0709265
0.0709265
0.0709265
0.0709265
0.0709265
0.0709265
0.0709265
0.0709265
0.0709265
0.0709265
0.0709265
0.0709265
0.0709265
0.0709265
0.0709265
0.0709265
0.0709265
0.0709265
0.0709265
0.0709265
0.0709265
0.0709265
0.0709265
0.0709265
0.0709265
0.0709265
0.0709265
0.0709265
0.0709265
0.0709265
0.0709265
0.0709265
0.0709265
0.0709265
0.0709265
0.0709265
0.0709265
0.0709265
0.0709265
0.0709265
0.0709265
0.0709265
0.0709265
0.0709265
0.0709265
0.0709265
0.0709265
0.0709265
0.0709265
0.0709265
0.0709265
0.0709265
0.0709265
0.0709265
0.0709265
0.0709265
0.0709265
0.0709265
0.0709265
0.0709265
0.0709265
0.0709265
0.0709265
0.0709265
0.0709265
0.0709265
0.0709265
0.0709265
0.0709265
0.0709265
0.0709265
0.0709265
0.0709265
0.0709265
0.0709264
0.0709264
0.0709264
0.0709264
0.0709264
0.0709264
0.0709264
0.0709264
0.0709264
0.0709264
0.0709264
0.0709264
0.0709264
0.0709264
0.0709264
0.0709264
0.0709264
0.0709264
0.0709264
0.0709264
0.0709264
0.0709264
0.0709264
0.0709264
0.0709264
0.0709264
0.0709264
0.0709264
0.0709264
0.0709264
0.0709264
0.0709264
0.0709264
0.0709264
0.0709264
0.0709264
0.0709264
0.0709264
0.0709264
0.0709264
0.0709264
0.0709264
0.0709264
0.0709264
0.0709264
0.0709264
0.0709264
0.0709264
0.0709264
0.0709264
0.0709264
0.0709264
0.0709264
0.0709264
0.0709264
0.0709264
0.0709264
0.0709264
0.0709264
0.0709264
0.0709264
0.0709264
0.0709264
0.0709264
0.0709264
0.0709264
0.0709264
0.0709264
0.0709264
0.0709264
0.0709264
0.0709264
0.0709264
0.0709264
0.0709264
0.0709264
0.0709264
0.0709264
0.0709264
0.0709264
0.0709264
0.0709264
0.0709264
0.0709264
0.0709264
0.0709264
0.0709264
0.0709264
0.0709264
0.0709264
0.0709264
0.0709264
0.0709264
0.0709264
0.0709264
0.0709264
0.0709264
0.0709264
0.0709264
0.0709264
0.0709264
0.0709263
0.0709263
0.0709263
0.0709263
0.0709263
0.0709263
0.0709263
0.0709263
0.0709263
0.0709263
0.0709263
0.0709263
0.0709263
0.0709263
0.0709263
0.0709263
0.0709263
0.0709263
0.0709263
0.0709263
0.0709263
0.0709263
0.0709263
0.0709263
0.0709263
0.0709263
0.0709263
0.0709263
0.0709263
0.0709263
0.0709263
0.0709263
0.0709263
0.0709263
0.0709263
0.0709263
0.0709263
0.0709263
0.0709263
0.0709263
0.0709263
0.0709263
0.0709263
0.0709263
0.0709263
0.0709263
0.0709263
0.0709263
0.0709263
0.0709263
0.0709263
0.0709263
0.0709263
0.0709263
0.0709263
0.0709263
0.0709263
0.0709263
0.0709263
0.0709263
0.0709263
0.0709263
0.0709263
0.0709263
0.0709263
0.0709263
0.0709263
0.0709262
0.0709262
0.0709262
0.0709262
0.0709262
0.0709262
0.0709262
0.0709262
0.0709262
0.0709262
0.0709262
0.0709262
0.0709262
0.0709262
0.0709262
0.0709262
0.0709262
0.0709262
0.0709262
0.0709262
0.0709262
0.0709262
0.0709262
0.0709262
0.0709262
0.0709262
0.0709262
0.0709262
0.0709262
0.0709262
0.0709262
0.0709262
0.0709262
0.0709262
0.0709262
0.0709262
0.0709262
0.0709262
0.0709262
0.0709262
0.0709262
0.0709262
0.0709262
0.0709262
0.0709262
0.0709262
0.0709262
0.0709262
0.0709262
0.0709261
0.0709261
0.0709261
0.0709261
0.0709261
0.0709261
0.0709261
0.0709261
0.0709261
0.0709261
0.0709261
0.0709261
0.0709261
0.0709261
0.0709261
0.0709261
0.0709261
0.0709261
0.0709261
0.0709261
0.0709261
0.0709261
0.0709261
0.0709261
0.0709261
0.0709261
0.0709261
0.0709261
0.0709261
0.0709261
0.0709261
0.0709261
0.0709261
0.0709261
0.0709261
0.0709261
0.070926
0.070926
0.070926
0.070926
0.070926
0.070926
0.070926
0.070926
0.070926
0.070926
0.070926
0.070926
0.070926
0.070926
0.070926
0.070926
0.070926
0.070926
0.070926
0.070926
0.070926
0.070926
0.070926
0.070926
0.070926
0.070926
0.070926
0.070926
0.0709259
0.0709259
0.0709259
0.0709259
0.0709259
0.0709259
0.0709259
0.0709259
0.0709259
0.0709259
0.0709259
0.0709259
0.0709259
0.0709259
0.0709259
0.0709259
0.0709259
0.0709259
0.0709259
0.0709259
0.0709259
0.0709259
0.0709259
0.0709258
0.0709258
0.0709258
0.0709258
0.0709258
0.0709258
0.0709258
0.0709258
0.0709258
0.0709258
0.0709258
0.0709258
0.0709258
0.0709258
0.0709258
0.0709258
0.0709258
0.0709258
0.0709257
0.0709257
0.0709257
0.0709257
0.0709257
0.0709257
0.0709257
0.0709257
0.0709257
0.0709257
0.0709257
0.0709257
0.0709257
0.0709257
0.0709257
0.0709257
0.0709256
0.0709256
0.0709256
0.0709256
0.0709256
0.0709256
0.0709256
0.0709256
0.0709256
0.0709256
0.0709256
0.0709256
0.0709256
0.0709255
0.0709255
0.0709255
0.0709255
0.0709255
0.0709255
0.0709255
0.0709255
0.0709255
0.0709255
0.0709255
0.0709254
0.0709254
0.0709254
0.0709254
0.0709254
0.0709254
0.0709254
0.0709254
0.0709254
0.0709254
0.0709253
0.0709253
0.0709253
0.0709253
0.0709253
0.0709253
0.0709253
0.0709253
0.0709252
0.0709252
0.0709252
0.0709252
0.0709252
0.0709252
0.0709252
0.0709252
0.0709251
0.0709251
0.0709251
0.0709251
0.0709251
0.0709251
0.0709251
0.070925
0.070925
0.070925
0.070925
0.070925
0.0709249
0.0709249
0.0709249
0.0709249
0.0709249
0.0709249
0.0709248
0.0709248
0.0709248
0.0709248
0.0709248
0.0709247
0.0709247
0.0709247
0.0709247
0.0709246
0.0709246
0.0709246
0.0709246
0.0709245
0.0709245
0.0709245
0.0709245
0.0709244
0.0709244
0.0709244
0.0709243
0.0709243
0.0709243
0.0709243
0.0709242
0.0709242
0.0709241
0.0709241
0.0709241
0.070924
0.070924
0.070924
0.0709239
0.0709239
0.0709238
0.0709238
0.0709237
0.0709237
0.0709236
0.0709236
0.0709235
0.0709235
0.0709234
0.0709234
0.0709233
0.0709233
0.0709232
0.0709231
0.0709231
0.070923
0.0709229
0.0709228
0.0709228
0.0709227
0.0709226
0.0709225
0.0709224
0.0709223
0.0709222
0.0709221
0.070922
0.0709219
0.0709218
0.0709216
0.0709215
0.0709214
0.0709212
0.0709211
0.0709209
0.0709207
0.0709205
0.0709203
0.0709201
0.0709199
0.0709197
0.0709194
0.0709192
0.0709189
0.0709186
0.0709183
0.0709179
0.0709175
0.0709171
0.0709166
0.0709161
0.0709156
0.070915
0.0709143
0.0709136
0.0709127
0.0709118
0.0709107
0.0709095
0.0709081
0.0709064
0.0709044
0.070902
0.0708992
0.0708956
0.070891
0.0708851
0.0708772
0.070866
0.0708495
0.0708241
0.0707829
0.0707104
0.0705631
0.0701877
0.0689727
0.0639378
0.0299747
0.0143091
0.00698572
0.00345256
0.00171598
0.000854769
0.000426104
0.000212459
0.000105938
5.28244e-05
2.63406e-05
1.31351e-05
6.55033e-06
3.26683e-06
1.62941e-06
8.12827e-07
4.05553e-07
2.02402e-07
1.01068e-07
5.05311e-08
2.52642e-08
1.27089e-08
6.4363e-09
3.25912e-09
1.8587e-09
1.28217e-09
7.83203e-10
4.77155e-10
3.29124e-10
2.52939e-10
2.184e-10
1.99661e-10
1.90784e-10
1.86204e-10
1.82922e-10
1.80406e-10
1.79349e-10
1.78615e-10
1.78274e-10
1.78073e-10
1.77915e-10
1.77839e-10
1.77782e-10
1.77754e-10
1.7774e-10
1.77732e-10
1.77728e-10
1.77726e-10
1.77725e-10
1.77725e-10
1.77725e-10
1.77725e-10
1.77726e-10
1.77726e-10
1.77727e-10
1.77728e-10
1.77728e-10
1.77729e-10
1.7773e-10
1.77731e-10
1.77732e-10
1.77733e-10
1.77733e-10
1.77734e-10
1.77735e-10
1.77736e-10
1.77737e-10
1.77738e-10
1.77738e-10
1.77739e-10
1.7774e-10
1.7774e-10
1.77741e-10
1.77742e-10
1.77743e-10
1.77744e-10
1.77744e-10
1.77745e-10
1.77746e-10
1.77747e-10
1.77747e-10
1.77748e-10
1.77749e-10
1.7775e-10
1.77751e-10
1.77751e-10
1.77752e-10
1.77753e-10
1.77754e-10
1.77755e-10
1.77755e-10
1.77756e-10
1.77757e-10
1.77757e-10
1.77758e-10
1.77759e-10
1.7776e-10
1.7776e-10
1.77761e-10
1.77762e-10
1.77763e-10
1.77763e-10
1.77764e-10
1.77765e-10
1.77766e-10
1.77766e-10
1.77767e-10
1.77768e-10
1.77769e-10
1.77769e-10
1.7777e-10
1.77771e-10
1.77772e-10
1.77772e-10
1.77773e-10
1.77774e-10
1.77775e-10
1.77776e-10
1.77776e-10
1.77777e-10
1.77778e-10
1.77779e-10
1.77779e-10
1.7778e-10
1.77781e-10
1.77782e-10
1.77783e-10
1.77784e-10
1.77785e-10
1.77786e-10
1.77786e-10
1.77787e-10
1.77788e-10
1.77789e-10
1.7779e-10
1.7779e-10
1.77791e-10
1.77792e-10
1.77793e-10
1.77794e-10
1.77794e-10
1.77795e-10
1.77796e-10
1.77797e-10
1.77798e-10
1.77798e-10
1.77799e-10
1.778e-10
1.77801e-10
1.77802e-10
1.77802e-10
1.77803e-10
1.77804e-10
1.77805e-10
1.77805e-10
1.77806e-10
1.77807e-10
1.77808e-10
1.77808e-10
1.77809e-10
1.7781e-10
1.77811e-10
1.77811e-10
1.77812e-10
1.77813e-10
1.77813e-10
1.77814e-10
1.77815e-10
1.77816e-10
1.77817e-10
1.77817e-10
1.77818e-10
1.77819e-10
1.7782e-10
1.77821e-10
1.77822e-10
1.77823e-10
1.77824e-10
1.77825e-10
1.77825e-10
1.77826e-10
1.77827e-10
1.77828e-10
1.77828e-10
1.77829e-10
1.7783e-10
1.77831e-10
1.77831e-10
1.77833e-10
1.77833e-10
1.77834e-10
1.77835e-10
1.77836e-10
1.77837e-10
1.77837e-10
1.77838e-10
1.77839e-10
1.7784e-10
1.77841e-10
1.77842e-10
1.77842e-10
1.77843e-10
1.77844e-10
1.77845e-10
1.77845e-10
1.77846e-10
1.77847e-10
1.77847e-10
1.77848e-10
1.77849e-10
1.7785e-10
1.77851e-10
1.77851e-10
1.77852e-10
1.77853e-10
1.77854e-10
1.77855e-10
1.77855e-10
1.77856e-10
1.77857e-10
1.77858e-10
1.77859e-10
1.77859e-10
1.7786e-10
1.77861e-10
1.77862e-10
1.77863e-10
1.77863e-10
1.77864e-10
1.77865e-10
1.77866e-10
1.77866e-10
1.77867e-10
1.77868e-10
1.77869e-10
1.77869e-10
1.7787e-10
1.77871e-10
1.77872e-10
1.77873e-10
1.77874e-10
1.77874e-10
1.77875e-10
1.77876e-10
1.77877e-10
1.77877e-10
1.77878e-10
1.77879e-10
1.7788e-10
1.77881e-10
1.77882e-10
1.77882e-10
1.77883e-10
1.77884e-10
1.77885e-10
1.77885e-10
1.77886e-10
1.77887e-10
1.77888e-10
1.77889e-10
1.77889e-10
1.7789e-10
1.77891e-10
1.77892e-10
1.77893e-10
1.77893e-10
1.77894e-10
1.77895e-10
1.77896e-10
1.77897e-10
1.77898e-10
1.77898e-10
1.77899e-10
1.779e-10
1.77901e-10
1.77902e-10
1.77903e-10
1.77903e-10
1.77904e-10
1.77905e-10
1.77906e-10
1.77907e-10
1.77907e-10
1.77908e-10
1.77909e-10
1.77909e-10
1.7791e-10
1.77911e-10
1.77912e-10
1.77912e-10
1.77913e-10
1.77914e-10
1.77915e-10
1.77916e-10
1.77916e-10
1.77918e-10
)
;

boundaryField
{
    fixedWall
    {
        type            zeroGradient;
    }
    outlet
    {
        type            inletOutlet;
        inletValue      uniform 0;
        value           uniform 1.77918e-10;
    }
    defaultFaces
    {
        type            empty;
    }
}


// ************************************************************************* //
