/*--------------------------------*- C++ -*----------------------------------*\
| =========                 |                                                 |
| \\      /  F ield         | OpenFOAM: The Open Source CFD Toolbox           |
|  \\    /   O peration     | Version:  2406                                  |
|   \\  /    A nd           | Website:  www.openfoam.com                      |
|    \\/     M anipulation  |                                                 |
\*---------------------------------------------------------------------------*/
FoamFile
{
    version     2.0;
    format      ascii;
    arch        "LSB;label=32;scalar=64";
    class       volScalarField;
    location    "4.4";
    object      H2O;
}
// * * * * * * * * * * * * * * * * * * * * * * * * * * * * * * * * * * * * * //

dimensions      [0 0 0 0 0 0 0];

internalField   nonuniform List<scalar> 
1000
(
0.0580663
0.0580663
0.0580663
0.0580663
0.0580663
0.0580664
0.0580664
0.0580664
0.0580664
0.0580664
0.0580664
0.0580664
0.0580664
0.0580664
0.0580664
0.0580665
0.0580665
0.0580665
0.0580665
0.0580665
0.0580665
0.0580665
0.0580665
0.0580665
0.0580666
0.0580666
0.0580666
0.0580666
0.0580666
0.0580666
0.0580666
0.0580666
0.0580667
0.0580667
0.0580667
0.0580667
0.0580667
0.0580667
0.0580667
0.0580667
0.0580667
0.0580668
0.0580668
0.0580668
0.0580668
0.0580668
0.0580668
0.0580668
0.0580668
0.0580668
0.0580668
0.0580668
0.0580668
0.0580668
0.0580668
0.0580668
0.0580669
0.0580669
0.0580669
0.0580669
0.0580669
0.0580669
0.0580669
0.0580669
0.0580669
0.0580669
0.0580669
0.0580669
0.0580669
0.0580669
0.0580669
0.0580669
0.0580669
0.0580669
0.0580669
0.0580669
0.0580669
0.0580669
0.0580669
0.0580669
0.0580669
0.0580669
0.0580669
0.0580669
0.0580669
0.0580669
0.0580669
0.0580669
0.0580669
0.0580669
0.0580669
0.0580669
0.0580669
0.0580669
0.0580669
0.0580669
0.0580669
0.0580669
0.0580669
0.0580669
0.0580669
0.0580669
0.0580669
0.0580669
0.0580669
0.0580669
0.0580669
0.0580669
0.0580669
0.0580669
0.0580669
0.0580669
0.0580669
0.0580669
0.0580669
0.0580669
0.0580669
0.0580669
0.0580669
0.0580669
0.0580669
0.0580669
0.0580669
0.0580669
0.0580669
0.0580669
0.0580669
0.0580669
0.0580669
0.0580669
0.0580669
0.0580669
0.0580669
0.0580669
0.0580669
0.0580669
0.0580669
0.0580669
0.0580669
0.0580669
0.0580669
0.0580669
0.0580669
0.0580669
0.0580669
0.0580669
0.0580669
0.0580669
0.0580669
0.0580669
0.0580669
0.0580669
0.0580669
0.0580669
0.0580669
0.0580669
0.0580669
0.0580669
0.0580669
0.0580669
0.0580669
0.0580669
0.0580669
0.0580669
0.0580669
0.0580669
0.0580669
0.0580669
0.0580669
0.0580669
0.0580669
0.0580669
0.0580669
0.0580669
0.0580669
0.0580669
0.0580669
0.0580669
0.0580669
0.0580669
0.0580669
0.0580669
0.0580669
0.0580669
0.0580669
0.0580669
0.0580669
0.0580669
0.0580669
0.0580669
0.0580669
0.0580669
0.0580669
0.0580669
0.0580669
0.0580669
0.0580669
0.0580669
0.0580669
0.0580669
0.0580669
0.0580669
0.0580669
0.0580669
0.0580668
0.0580668
0.0580668
0.0580668
0.0580668
0.0580668
0.0580668
0.0580668
0.0580668
0.0580668
0.0580668
0.0580668
0.0580668
0.0580668
0.0580668
0.0580668
0.0580668
0.0580668
0.0580668
0.0580668
0.0580668
0.0580668
0.0580668
0.0580668
0.0580668
0.0580668
0.0580668
0.0580668
0.0580668
0.0580668
0.0580668
0.0580668
0.0580668
0.0580668
0.0580668
0.0580668
0.0580668
0.0580668
0.0580668
0.0580668
0.0580668
0.0580668
0.0580668
0.0580668
0.0580668
0.0580668
0.0580668
0.0580668
0.0580668
0.0580668
0.0580668
0.0580668
0.0580668
0.0580668
0.0580668
0.0580668
0.0580668
0.0580668
0.0580668
0.0580668
0.0580668
0.0580668
0.0580668
0.0580668
0.0580668
0.0580668
0.0580668
0.0580668
0.0580668
0.0580668
0.0580668
0.0580668
0.0580668
0.0580668
0.0580668
0.0580668
0.0580668
0.0580668
0.0580668
0.0580668
0.0580668
0.0580668
0.0580668
0.0580668
0.0580668
0.0580668
0.0580668
0.0580668
0.0580668
0.0580668
0.0580668
0.0580668
0.0580668
0.0580668
0.0580668
0.0580668
0.0580668
0.0580668
0.0580668
0.0580668
0.0580668
0.0580668
0.0580668
0.0580668
0.0580668
0.0580668
0.0580668
0.0580668
0.0580668
0.0580668
0.0580668
0.0580667
0.0580667
0.0580667
0.0580667
0.0580667
0.0580667
0.0580667
0.0580667
0.0580667
0.0580667
0.0580667
0.0580667
0.0580667
0.0580667
0.0580667
0.0580667
0.0580667
0.0580667
0.0580667
0.0580667
0.0580667
0.0580667
0.0580667
0.0580667
0.0580667
0.0580667
0.0580667
0.0580667
0.0580667
0.0580667
0.0580667
0.0580667
0.0580667
0.0580667
0.0580667
0.0580667
0.0580667
0.0580667
0.0580667
0.0580667
0.0580667
0.0580667
0.0580667
0.0580667
0.0580667
0.0580667
0.0580667
0.0580667
0.0580667
0.0580667
0.0580667
0.0580667
0.0580667
0.0580667
0.0580667
0.0580667
0.0580667
0.0580667
0.0580667
0.0580667
0.0580667
0.0580667
0.0580667
0.0580667
0.0580667
0.0580667
0.0580667
0.0580667
0.0580667
0.0580667
0.0580666
0.0580666
0.0580666
0.0580666
0.0580666
0.0580666
0.0580666
0.0580666
0.0580666
0.0580666
0.0580666
0.0580666
0.0580666
0.0580666
0.0580666
0.0580666
0.0580666
0.0580666
0.0580666
0.0580666
0.0580666
0.0580666
0.0580666
0.0580666
0.0580666
0.0580666
0.0580666
0.0580666
0.0580666
0.0580666
0.0580666
0.0580666
0.0580666
0.0580666
0.0580666
0.0580666
0.0580666
0.0580666
0.0580666
0.0580666
0.0580666
0.0580666
0.0580666
0.0580666
0.0580666
0.0580666
0.0580666
0.0580666
0.0580665
0.0580665
0.0580665
0.0580665
0.0580665
0.0580665
0.0580665
0.0580665
0.0580665
0.0580665
0.0580665
0.0580665
0.0580665
0.0580665
0.0580665
0.0580665
0.0580665
0.0580665
0.0580665
0.0580665
0.0580665
0.0580665
0.0580665
0.0580665
0.0580665
0.0580665
0.0580665
0.0580665
0.0580665
0.0580665
0.0580665
0.0580665
0.0580665
0.0580665
0.0580665
0.0580665
0.0580664
0.0580664
0.0580664
0.0580664
0.0580664
0.0580664
0.0580664
0.0580664
0.0580664
0.0580664
0.0580664
0.0580664
0.0580664
0.0580664
0.0580664
0.0580664
0.0580664
0.0580664
0.0580664
0.0580664
0.0580664
0.0580664
0.0580664
0.0580664
0.0580664
0.0580664
0.0580664
0.0580663
0.0580663
0.0580663
0.0580663
0.0580663
0.0580663
0.0580663
0.0580663
0.0580663
0.0580663
0.0580663
0.0580663
0.0580663
0.0580663
0.0580663
0.0580663
0.0580663
0.0580663
0.0580663
0.0580663
0.0580663
0.0580662
0.0580662
0.0580662
0.0580662
0.0580662
0.0580662
0.0580662
0.0580662
0.0580662
0.0580662
0.0580662
0.0580662
0.0580662
0.0580662
0.0580662
0.0580662
0.0580662
0.0580661
0.0580661
0.0580661
0.0580661
0.0580661
0.0580661
0.0580661
0.0580661
0.0580661
0.0580661
0.0580661
0.0580661
0.0580661
0.0580661
0.058066
0.058066
0.058066
0.058066
0.058066
0.058066
0.058066
0.058066
0.058066
0.058066
0.058066
0.058066
0.0580659
0.0580659
0.0580659
0.0580659
0.0580659
0.0580659
0.0580659
0.0580659
0.0580659
0.0580659
0.0580658
0.0580658
0.0580658
0.0580658
0.0580658
0.0580658
0.0580658
0.0580658
0.0580658
0.0580657
0.0580657
0.0580657
0.0580657
0.0580657
0.0580657
0.0580657
0.0580656
0.0580656
0.0580656
0.0580656
0.0580656
0.0580656
0.0580656
0.0580655
0.0580655
0.0580655
0.0580655
0.0580655
0.0580655
0.0580654
0.0580654
0.0580654
0.0580654
0.0580654
0.0580653
0.0580653
0.0580653
0.0580653
0.0580653
0.0580652
0.0580652
0.0580652
0.0580652
0.0580651
0.0580651
0.0580651
0.0580651
0.058065
0.058065
0.058065
0.0580649
0.0580649
0.0580649
0.0580649
0.0580648
0.0580648
0.0580648
0.0580647
0.0580647
0.0580646
0.0580646
0.0580646
0.0580645
0.0580645
0.0580644
0.0580644
0.0580643
0.0580643
0.0580642
0.0580642
0.0580641
0.0580641
0.058064
0.058064
0.0580639
0.0580638
0.0580638
0.0580637
0.0580636
0.0580636
0.0580635
0.0580634
0.0580633
0.0580632
0.0580631
0.058063
0.0580629
0.0580628
0.0580627
0.0580626
0.0580624
0.0580623
0.0580622
0.058062
0.0580619
0.0580617
0.0580615
0.0580613
0.0580611
0.0580609
0.0580607
0.0580604
0.0580602
0.0580599
0.0580595
0.0580592
0.0580588
0.0580584
0.058058
0.0580575
0.0580569
0.0580563
0.0580556
0.0580548
0.058054
0.058053
0.0580518
0.0580504
0.0580488
0.0580469
0.0580445
0.0580416
0.0580379
0.058033
0.0580265
0.0580173
0.0580039
0.0579831
0.0579493
0.0578899
0.0577694
0.0574621
0.0564673
0.0523453
0.02454
0.0117147
0.00571915
0.00282658
0.00140485
0.000699792
0.000348848
0.000173938
8.67305e-05
4.32469e-05
2.15648e-05
1.07536e-05
5.3627e-06
2.67452e-06
1.33399e-06
6.65454e-07
3.32023e-07
1.65705e-07
8.27436e-08
4.13694e-08
2.06836e-08
1.04046e-08
5.26934e-09
2.66821e-09
1.52171e-09
1.0497e-09
6.41201e-10
3.90642e-10
2.69451e-10
2.07079e-10
1.78802e-10
1.63461e-10
1.56193e-10
1.52443e-10
1.49757e-10
1.47697e-10
1.46831e-10
1.46231e-10
1.45951e-10
1.45786e-10
1.45657e-10
1.45596e-10
1.45549e-10
1.45526e-10
1.45514e-10
1.45507e-10
1.45504e-10
1.45503e-10
1.45502e-10
1.45502e-10
1.45502e-10
1.45502e-10
1.45503e-10
1.45503e-10
1.45504e-10
1.45504e-10
1.45505e-10
1.45505e-10
1.45506e-10
1.45506e-10
1.45507e-10
1.45508e-10
1.45509e-10
1.45509e-10
1.4551e-10
1.45511e-10
1.45511e-10
1.45512e-10
1.45513e-10
1.45513e-10
1.45514e-10
1.45514e-10
1.45515e-10
1.45516e-10
1.45517e-10
1.45517e-10
1.45518e-10
1.45518e-10
1.45519e-10
1.4552e-10
1.4552e-10
1.45521e-10
1.45522e-10
1.45522e-10
1.45523e-10
1.45523e-10
1.45524e-10
1.45525e-10
1.45525e-10
1.45526e-10
1.45526e-10
1.45527e-10
1.45528e-10
1.45528e-10
1.45529e-10
1.4553e-10
1.4553e-10
1.45531e-10
1.45531e-10
1.45532e-10
1.45533e-10
1.45533e-10
1.45534e-10
1.45535e-10
1.45535e-10
1.45536e-10
1.45536e-10
1.45537e-10
1.45538e-10
1.45538e-10
1.45539e-10
1.4554e-10
1.4554e-10
1.45541e-10
1.45541e-10
1.45542e-10
1.45543e-10
1.45543e-10
1.45544e-10
1.45544e-10
1.45545e-10
1.45546e-10
1.45546e-10
1.45547e-10
1.45548e-10
1.45549e-10
1.45549e-10
1.4555e-10
1.45551e-10
1.45552e-10
1.45552e-10
1.45553e-10
1.45553e-10
1.45554e-10
1.45555e-10
1.45555e-10
1.45556e-10
1.45557e-10
1.45557e-10
1.45558e-10
1.45559e-10
1.45559e-10
1.4556e-10
1.45561e-10
1.45561e-10
1.45562e-10
1.45563e-10
1.45563e-10
1.45564e-10
1.45565e-10
1.45565e-10
1.45566e-10
1.45567e-10
1.45567e-10
1.45568e-10
1.45568e-10
1.45569e-10
1.45569e-10
1.4557e-10
1.4557e-10
1.45571e-10
1.45572e-10
1.45573e-10
1.45573e-10
1.45574e-10
1.45574e-10
1.45575e-10
1.45576e-10
1.45576e-10
1.45577e-10
1.45577e-10
1.45578e-10
1.45579e-10
1.4558e-10
1.4558e-10
1.45581e-10
1.45582e-10
1.45583e-10
1.45583e-10
1.45584e-10
1.45585e-10
1.45585e-10
1.45586e-10
1.45586e-10
1.45587e-10
1.45588e-10
1.45588e-10
1.45589e-10
1.4559e-10
1.45591e-10
1.45591e-10
1.45592e-10
1.45593e-10
1.45593e-10
1.45594e-10
1.45595e-10
1.45595e-10
1.45596e-10
1.45597e-10
1.45597e-10
1.45598e-10
1.45599e-10
1.45599e-10
1.456e-10
1.456e-10
1.45601e-10
1.45601e-10
1.45602e-10
1.45603e-10
1.45603e-10
1.45604e-10
1.45605e-10
1.45605e-10
1.45606e-10
1.45607e-10
1.45607e-10
1.45608e-10
1.45609e-10
1.45609e-10
1.4561e-10
1.45611e-10
1.45611e-10
1.45612e-10
1.45613e-10
1.45613e-10
1.45614e-10
1.45615e-10
1.45615e-10
1.45616e-10
1.45616e-10
1.45617e-10
1.45618e-10
1.45618e-10
1.45619e-10
1.4562e-10
1.4562e-10
1.45621e-10
1.45622e-10
1.45622e-10
1.45623e-10
1.45624e-10
1.45624e-10
1.45625e-10
1.45625e-10
1.45626e-10
1.45627e-10
1.45627e-10
1.45628e-10
1.45629e-10
1.45629e-10
1.4563e-10
1.45631e-10
1.45631e-10
1.45632e-10
1.45633e-10
1.45633e-10
1.45634e-10
1.45635e-10
1.45635e-10
1.45636e-10
1.45636e-10
1.45637e-10
1.45638e-10
1.45638e-10
1.45639e-10
1.4564e-10
1.45641e-10
1.45641e-10
1.45642e-10
1.45642e-10
1.45643e-10
1.45644e-10
1.45645e-10
1.45645e-10
1.45646e-10
1.45647e-10
1.45647e-10
1.45648e-10
1.45648e-10
1.45649e-10
1.4565e-10
1.4565e-10
1.45651e-10
1.45652e-10
1.45652e-10
1.45653e-10
1.45654e-10
1.45654e-10
1.45655e-10
1.45655e-10
1.45656e-10
1.45657e-10
1.45657e-10
1.45658e-10
1.45659e-10
1.4566e-10
)
;

boundaryField
{
    fixedWall
    {
        type            zeroGradient;
    }
    outlet
    {
        type            inletOutlet;
        inletValue      uniform 0;
        value           uniform 1.4566e-10;
    }
    defaultFaces
    {
        type            empty;
    }
}


// ************************************************************************* //
