/*--------------------------------*- C++ -*----------------------------------*\
| =========                 |                                                 |
| \\      /  F ield         | OpenFOAM: The Open Source CFD Toolbox           |
|  \\    /   O peration     | Version:  2406                                  |
|   \\  /    A nd           | Website:  www.openfoam.com                      |
|    \\/     M anipulation  |                                                 |
\*---------------------------------------------------------------------------*/
FoamFile
{
    version     2.0;
    format      ascii;
    arch        "LSB;label=32;scalar=64";
    class       volScalarField;
    location    "4.4";
    object      O2;
}
// * * * * * * * * * * * * * * * * * * * * * * * * * * * * * * * * * * * * * //

dimensions      [0 0 0 0 0 0 0];

internalField   nonuniform List<scalar> 
1000
(
1.5197e-06
1.51605e-06
1.50966e-06
1.5011e-06
1.49074e-06
1.47885e-06
1.46565e-06
1.45128e-06
1.43589e-06
1.41958e-06
1.40244e-06
1.38456e-06
1.366e-06
1.34684e-06
1.32714e-06
1.30694e-06
1.28631e-06
1.2653e-06
1.24396e-06
1.22233e-06
1.20047e-06
1.17843e-06
1.15626e-06
1.13401e-06
1.11172e-06
1.08946e-06
1.06726e-06
1.04517e-06
1.02326e-06
1.00155e-06
9.80094e-07
9.58938e-07
9.38118e-07
9.17674e-07
8.97639e-07
8.78044e-07
8.58919e-07
8.40288e-07
8.22174e-07
8.04594e-07
7.87565e-07
7.71098e-07
7.55202e-07
7.39884e-07
7.25148e-07
7.10994e-07
6.9742e-07
6.84423e-07
6.71998e-07
6.60137e-07
6.4883e-07
6.38068e-07
6.27839e-07
6.18129e-07
6.08926e-07
6.00215e-07
5.91982e-07
5.8421e-07
5.76884e-07
5.69988e-07
5.63507e-07
5.57423e-07
5.51722e-07
5.46388e-07
5.41404e-07
5.36755e-07
5.32426e-07
5.28403e-07
5.24671e-07
5.21216e-07
5.18024e-07
5.15082e-07
5.12377e-07
5.09897e-07
5.0763e-07
5.05565e-07
5.0369e-07
5.01995e-07
5.00471e-07
4.99106e-07
4.97893e-07
4.96823e-07
4.95886e-07
4.95075e-07
4.94383e-07
4.93803e-07
4.93326e-07
4.92948e-07
4.92661e-07
4.92461e-07
4.92342e-07
4.92298e-07
4.92324e-07
4.92416e-07
4.92569e-07
4.9278e-07
4.93044e-07
4.93359e-07
4.9372e-07
4.94125e-07
4.9457e-07
4.95053e-07
4.95571e-07
4.96122e-07
4.96702e-07
4.97312e-07
4.97947e-07
4.98607e-07
4.99289e-07
4.99993e-07
5.00716e-07
5.01457e-07
5.02216e-07
5.0299e-07
5.03778e-07
5.04581e-07
5.05396e-07
5.06222e-07
5.0706e-07
5.07908e-07
5.08766e-07
5.09633e-07
5.10508e-07
5.11391e-07
5.12281e-07
5.13179e-07
5.14083e-07
5.14994e-07
5.1591e-07
5.16832e-07
5.1776e-07
5.18693e-07
5.1963e-07
5.20573e-07
5.2152e-07
5.22472e-07
5.23427e-07
5.24388e-07
5.25352e-07
5.2632e-07
5.27292e-07
5.28268e-07
5.29248e-07
5.30232e-07
5.3122e-07
5.32211e-07
5.33206e-07
5.34205e-07
5.35207e-07
5.36213e-07
5.37219e-07
5.38225e-07
5.39243e-07
5.40266e-07
5.41292e-07
5.42321e-07
5.43354e-07
5.44391e-07
5.45431e-07
5.46475e-07
5.47523e-07
5.48575e-07
5.4963e-07
5.5069e-07
5.51753e-07
5.5282e-07
5.53892e-07
5.54967e-07
5.56047e-07
5.57131e-07
5.58218e-07
5.5931e-07
5.60407e-07
5.61507e-07
5.62612e-07
5.63721e-07
5.64835e-07
5.65953e-07
5.67075e-07
5.68202e-07
5.69333e-07
5.70469e-07
5.71609e-07
5.72754e-07
5.73903e-07
5.75057e-07
5.76216e-07
5.77379e-07
5.78547e-07
5.7972e-07
5.80898e-07
5.8208e-07
5.83267e-07
5.84459e-07
5.85656e-07
5.86858e-07
5.88064e-07
5.89276e-07
5.90492e-07
5.91714e-07
5.9294e-07
5.94172e-07
5.95409e-07
5.9665e-07
5.97897e-07
5.99149e-07
6.00406e-07
6.01668e-07
6.02936e-07
6.04208e-07
6.05486e-07
6.06769e-07
6.08058e-07
6.09352e-07
6.10651e-07
6.11956e-07
6.13266e-07
6.14581e-07
6.15902e-07
6.17228e-07
6.1856e-07
6.19898e-07
6.21241e-07
6.22589e-07
6.23943e-07
6.25303e-07
6.26669e-07
6.2804e-07
6.29417e-07
6.308e-07
6.32189e-07
6.33584e-07
6.34984e-07
6.3639e-07
6.37803e-07
6.39221e-07
6.40645e-07
6.42076e-07
6.43512e-07
6.44955e-07
6.46404e-07
6.47859e-07
6.4932e-07
6.50787e-07
6.52261e-07
6.53741e-07
6.55228e-07
6.56721e-07
6.5822e-07
6.59726e-07
6.61239e-07
6.62758e-07
6.64283e-07
6.65815e-07
6.67354e-07
6.689e-07
6.70452e-07
6.72012e-07
6.73578e-07
6.75151e-07
6.76731e-07
6.78318e-07
6.79912e-07
6.81513e-07
6.83121e-07
6.84736e-07
6.86359e-07
6.87988e-07
6.89626e-07
6.9127e-07
6.92922e-07
6.94581e-07
6.96248e-07
6.97923e-07
6.99605e-07
7.01295e-07
7.02992e-07
7.04698e-07
7.06411e-07
7.08132e-07
7.09861e-07
7.11599e-07
7.13344e-07
7.15098e-07
7.1686e-07
7.1863e-07
7.20409e-07
7.22197e-07
7.23993e-07
7.25797e-07
7.27611e-07
7.29433e-07
7.31264e-07
7.33105e-07
7.34954e-07
7.36813e-07
7.38681e-07
7.40559e-07
7.42434e-07
7.44314e-07
7.46221e-07
7.48137e-07
7.50063e-07
7.51999e-07
7.53945e-07
7.55901e-07
7.57867e-07
7.59843e-07
7.61829e-07
7.63825e-07
7.65832e-07
7.6785e-07
7.69878e-07
7.71917e-07
7.73967e-07
7.76027e-07
7.78099e-07
7.80181e-07
7.82275e-07
7.8438e-07
7.86496e-07
7.88624e-07
7.90763e-07
7.92913e-07
7.95076e-07
7.9725e-07
7.99435e-07
8.01633e-07
8.03843e-07
8.06064e-07
8.08298e-07
8.10544e-07
8.12802e-07
8.15073e-07
8.17356e-07
8.19652e-07
8.2196e-07
8.24281e-07
8.26614e-07
8.28961e-07
8.3132e-07
8.33693e-07
8.36079e-07
8.38477e-07
8.4089e-07
8.43315e-07
8.45754e-07
8.48207e-07
8.50674e-07
8.53154e-07
8.55648e-07
8.58157e-07
8.60679e-07
8.63216e-07
8.65768e-07
8.68333e-07
8.70914e-07
8.73509e-07
8.7612e-07
8.78745e-07
8.81386e-07
8.84042e-07
8.86714e-07
8.89402e-07
8.92105e-07
8.94824e-07
8.9756e-07
9.00312e-07
9.03081e-07
9.05866e-07
9.08668e-07
9.11488e-07
9.14325e-07
9.17179e-07
9.20051e-07
9.22941e-07
9.25849e-07
9.28775e-07
9.3172e-07
9.34684e-07
9.37667e-07
9.40669e-07
9.4369e-07
9.46731e-07
9.49793e-07
9.52874e-07
9.55975e-07
9.59098e-07
9.62241e-07
9.65405e-07
9.68591e-07
9.71798e-07
9.75028e-07
9.78279e-07
9.81553e-07
9.8485e-07
9.8817e-07
9.91514e-07
9.94881e-07
9.98273e-07
1.00166e-06
1.00507e-06
1.00854e-06
1.01203e-06
1.01554e-06
1.01908e-06
1.02264e-06
1.02623e-06
1.02985e-06
1.03349e-06
1.03716e-06
1.04086e-06
1.04459e-06
1.04834e-06
1.05212e-06
1.05593e-06
1.05976e-06
1.06363e-06
1.06753e-06
1.07145e-06
1.0754e-06
1.07938e-06
1.0834e-06
1.08744e-06
1.09151e-06
1.09562e-06
1.09975e-06
1.10391e-06
1.10811e-06
1.11234e-06
1.11659e-06
1.12088e-06
1.12521e-06
1.12956e-06
1.13395e-06
1.13836e-06
1.14282e-06
1.1473e-06
1.15182e-06
1.15637e-06
1.16096e-06
1.16558e-06
1.17023e-06
1.17492e-06
1.17965e-06
1.18441e-06
1.18918e-06
1.19398e-06
1.19885e-06
1.20376e-06
1.20871e-06
1.2137e-06
1.21872e-06
1.22379e-06
1.22889e-06
1.23404e-06
1.23923e-06
1.24446e-06
1.24974e-06
1.25506e-06
1.26042e-06
1.26583e-06
1.27129e-06
1.27679e-06
1.28234e-06
1.28794e-06
1.29359e-06
1.29929e-06
1.30504e-06
1.31085e-06
1.3167e-06
1.32261e-06
1.32857e-06
1.33459e-06
1.34067e-06
1.3468e-06
1.35299e-06
1.35924e-06
1.36555e-06
1.37192e-06
1.37835e-06
1.38484e-06
1.3914e-06
1.39802e-06
1.4047e-06
1.41144e-06
1.4182e-06
1.42508e-06
1.43204e-06
1.43906e-06
1.44615e-06
1.45332e-06
1.46056e-06
1.46786e-06
1.47524e-06
1.4827e-06
1.49023e-06
1.49783e-06
1.50551e-06
1.51327e-06
1.52111e-06
1.52903e-06
1.53703e-06
1.54511e-06
1.55328e-06
1.56153e-06
1.56987e-06
1.57829e-06
1.58681e-06
1.59541e-06
1.60411e-06
1.61291e-06
1.6218e-06
1.63078e-06
1.63987e-06
1.64906e-06
1.65835e-06
1.66775e-06
1.67726e-06
1.68688e-06
1.69661e-06
1.70638e-06
1.71625e-06
1.72632e-06
1.7365e-06
1.7468e-06
1.75722e-06
1.76776e-06
1.77843e-06
1.78922e-06
1.80015e-06
1.8112e-06
1.82239e-06
1.83372e-06
1.84519e-06
1.8568e-06
1.86855e-06
1.88045e-06
1.8925e-06
1.90471e-06
1.91706e-06
1.92958e-06
1.94226e-06
1.95511e-06
1.96813e-06
1.98132e-06
1.99468e-06
2.00823e-06
2.02197e-06
2.03589e-06
2.05001e-06
2.06432e-06
2.07883e-06
2.09341e-06
2.10832e-06
2.12345e-06
2.1388e-06
2.15439e-06
2.17021e-06
2.18627e-06
2.20257e-06
2.21912e-06
2.23592e-06
2.25299e-06
2.27032e-06
2.28793e-06
2.30581e-06
2.32399e-06
2.34245e-06
2.36122e-06
2.38029e-06
2.39968e-06
2.4194e-06
2.43944e-06
2.45982e-06
2.48055e-06
2.50164e-06
2.52308e-06
2.5449e-06
2.5671e-06
2.5897e-06
2.61268e-06
2.63608e-06
2.6599e-06
2.68414e-06
2.70882e-06
2.73395e-06
2.75954e-06
2.7856e-06
2.81214e-06
2.83918e-06
2.86657e-06
2.89439e-06
2.92298e-06
2.95211e-06
2.98181e-06
3.01208e-06
3.04295e-06
3.07444e-06
3.10657e-06
3.13935e-06
3.17282e-06
3.20699e-06
3.24189e-06
3.27754e-06
3.31396e-06
3.35119e-06
3.38926e-06
3.42818e-06
3.468e-06
3.50874e-06
3.55043e-06
3.59312e-06
3.63683e-06
3.6816e-06
3.72746e-06
3.77447e-06
3.82267e-06
3.87208e-06
3.92277e-06
3.97479e-06
4.02818e-06
4.08301e-06
4.13932e-06
4.1972e-06
4.25669e-06
4.31789e-06
4.38087e-06
4.4457e-06
4.51249e-06
4.58066e-06
4.65129e-06
4.72436e-06
4.79983e-06
4.87777e-06
4.95831e-06
5.04159e-06
5.12775e-06
5.21695e-06
5.30933e-06
5.40507e-06
5.50434e-06
5.60733e-06
5.71423e-06
5.82526e-06
5.94065e-06
6.06063e-06
6.18547e-06
6.31547e-06
6.45094e-06
6.59222e-06
6.7397e-06
6.8938e-06
7.05496e-06
7.22369e-06
7.40052e-06
7.58604e-06
7.78088e-06
7.98574e-06
8.20137e-06
8.42858e-06
8.6683e-06
8.91982e-06
9.18465e-06
9.46718e-06
9.76635e-06
1.00838e-05
1.04213e-05
1.0781e-05
1.11651e-05
1.15765e-05
1.20184e-05
1.24945e-05
1.30091e-05
1.35674e-05
1.4175e-05
1.48386e-05
1.5566e-05
1.63662e-05
1.72486e-05
1.82213e-05
1.93145e-05
2.05377e-05
2.19149e-05
2.3477e-05
2.52644e-05
2.73308e-05
2.97482e-05
3.26139e-05
3.60597e-05
4.02654e-05
4.54841e-05
5.2091e-05
6.06818e-05
7.22549e-05
8.85262e-05
0.000112473
0.000149377
0.000209319
0.000314811
0.000528902
0.00107478
0.00284164
0.0101632
0.059551
0.0823313
0.0929806
0.0981184
0.100644
0.101896
0.102519
0.10283
0.102985
0.103062
0.103101
0.10312
0.103129
0.103134
0.103137
0.103138
0.103138
0.103139
0.103139
0.103139
0.103139
0.103139
0.103139
0.103139
0.103139
0.103139
0.103139
0.103139
0.103139
0.103139
0.103139
0.103139
0.103139
0.103139
0.103139
0.103139
0.103139
0.103139
0.103139
0.103139
0.103139
0.103139
0.103139
0.103139
0.103139
0.103139
0.103139
0.103139
0.103139
0.103139
0.103139
0.103139
0.103139
0.103139
0.103139
0.103139
0.103139
0.103139
0.103139
0.103139
0.103139
0.103139
0.103139
0.103139
0.103139
0.103139
0.103139
0.103139
0.103139
0.103139
0.103139
0.103139
0.103139
0.103139
0.103139
0.103139
0.103139
0.103139
0.103139
0.103139
0.103139
0.103139
0.103139
0.103139
0.103139
0.103139
0.103139
0.103139
0.103139
0.103139
0.103139
0.103139
0.103139
0.103139
0.103139
0.103139
0.103139
0.103139
0.103139
0.103139
0.103139
0.103139
0.103139
0.103139
0.103139
0.103139
0.103139
0.103139
0.103139
0.103139
0.103139
0.103139
0.103139
0.103139
0.103139
0.103139
0.103139
0.103139
0.103139
0.103139
0.103139
0.103139
0.103139
0.103139
0.103139
0.103139
0.103139
0.103139
0.103139
0.103139
0.103139
0.103139
0.103139
0.103139
0.103139
0.103139
0.103139
0.103139
0.103139
0.103139
0.103139
0.103139
0.103139
0.103139
0.103139
0.103139
0.103139
0.103139
0.103139
0.103139
0.103139
0.103139
0.103139
0.103139
0.103139
0.103139
0.103139
0.103139
0.103139
0.103139
0.103139
0.103139
0.103139
0.103139
0.103139
0.103139
0.103139
0.103139
0.103139
0.103139
0.103139
0.103139
0.103139
0.103139
0.103139
0.103139
0.103139
0.103139
0.103139
0.103139
0.103139
0.103139
0.103139
0.103139
0.103139
0.103139
0.103139
0.103139
0.103139
0.103139
0.103139
0.103139
0.103139
0.103139
0.103139
0.103139
0.103139
0.103139
0.103139
0.103139
0.103139
0.103139
0.103139
0.103139
0.103139
0.103139
0.103139
0.103139
0.103139
0.103139
0.103139
0.103139
0.103139
0.103139
0.103139
0.103139
0.103139
0.103139
0.103139
0.103139
0.103139
0.103139
0.103139
0.103139
0.103139
0.103139
0.103139
0.103139
0.103139
0.103139
0.103139
0.103139
0.103139
0.103139
0.103139
0.103139
0.103139
0.103139
0.103139
0.103139
0.103139
0.103139
0.103139
0.103139
0.103139
0.103139
0.103139
0.103139
0.103139
0.103139
0.103139
0.103139
0.103139
0.103139
0.103139
0.103139
0.103139
0.103139
0.103139
0.103139
0.103139
0.103139
0.103139
0.103139
0.103139
0.103139
0.103139
0.103139
0.103139
0.103139
0.103139
0.103139
0.103139
0.103139
0.103139
0.103139
0.103139
0.103139
0.103139
0.103139
0.103139
0.103139
0.103139
0.103139
0.103139
0.103139
0.103139
0.103139
0.103139
0.103139
0.103139
0.103139
0.103139
0.103139
0.103139
0.103139
)
;

boundaryField
{
    fixedWall
    {
        type            zeroGradient;
    }
    outlet
    {
        type            inletOutlet;
        inletValue      uniform 0;
        value           uniform 0.103139;
    }
    defaultFaces
    {
        type            empty;
    }
}


// ************************************************************************* //
