/*--------------------------------*- C++ -*----------------------------------*\
| =========                 |                                                 |
| \\      /  F ield         | OpenFOAM: The Open Source CFD Toolbox           |
|  \\    /   O peration     | Version:  2406                                  |
|   \\  /    A nd           | Website:  www.openfoam.com                      |
|    \\/     M anipulation  |                                                 |
\*---------------------------------------------------------------------------*/
FoamFile
{
    version     2.0;
    format      ascii;
    arch        "LSB;label=32;scalar=64";
    class       surfaceScalarField;
    location    "4.4";
    object      phi;
}
// * * * * * * * * * * * * * * * * * * * * * * * * * * * * * * * * * * * * * //

dimensions      [1 0 -1 0 0 0 0];

oriented        oriented;

internalField   nonuniform List<scalar> 
999
(
-9.41278e-08
-2.55479e-07
-4.49096e-07
-6.58211e-07
-8.74053e-07
-1.09177e-06
-1.30858e-06
-1.52283e-06
-1.73357e-06
-1.94023e-06
-2.1425e-06
-2.34022e-06
-2.53334e-06
-2.72187e-06
-2.90584e-06
-3.08534e-06
-3.26044e-06
-3.43124e-06
-3.59783e-06
-3.76032e-06
-3.91879e-06
-4.07336e-06
-4.2241e-06
-4.37111e-06
-4.51448e-06
-4.65428e-06
-4.79061e-06
-4.92353e-06
-5.05311e-06
-5.17944e-06
-5.30258e-06
-5.4226e-06
-5.53955e-06
-5.65351e-06
-5.76452e-06
-5.87266e-06
-5.97797e-06
-6.08051e-06
-6.18034e-06
-6.2775e-06
-6.37206e-06
-6.46406e-06
-6.55355e-06
-6.64057e-06
-6.72519e-06
-6.80744e-06
-6.88738e-06
-6.96505e-06
-7.0405e-06
-7.11377e-06
-7.18491e-06
-7.25397e-06
-7.32098e-06
-7.38601e-06
-7.44908e-06
-7.51024e-06
-7.56954e-06
-7.62703e-06
-7.68274e-06
-7.73672e-06
-7.78901e-06
-7.83966e-06
-7.8887e-06
-7.93619e-06
-7.98215e-06
-8.02665e-06
-8.0697e-06
-8.11136e-06
-8.15167e-06
-8.19067e-06
-8.22839e-06
-8.26489e-06
-8.30018e-06
-8.33433e-06
-8.36735e-06
-8.3993e-06
-8.4302e-06
-8.46009e-06
-8.48902e-06
-8.51701e-06
-8.5441e-06
-8.57033e-06
-8.59572e-06
-8.62031e-06
-8.64413e-06
-8.66721e-06
-8.68959e-06
-8.71128e-06
-8.73232e-06
-8.75272e-06
-8.77254e-06
-8.7918e-06
-8.81052e-06
-8.82873e-06
-8.84645e-06
-8.86371e-06
-8.88052e-06
-8.89692e-06
-8.91291e-06
-8.92853e-06
-8.94378e-06
-8.95869e-06
-8.97328e-06
-8.98756e-06
-9.00155e-06
-9.01527e-06
-9.02874e-06
-9.04195e-06
-9.05494e-06
-9.06772e-06
-9.08029e-06
-9.09268e-06
-9.10488e-06
-9.11692e-06
-9.1288e-06
-9.14053e-06
-9.15213e-06
-9.1636e-06
-9.17495e-06
-9.18619e-06
-9.19733e-06
-9.20836e-06
-9.21931e-06
-9.23018e-06
-9.24096e-06
-9.25168e-06
-9.26233e-06
-9.27292e-06
-9.28345e-06
-9.29393e-06
-9.30436e-06
-9.31475e-06
-9.3251e-06
-9.33541e-06
-9.34568e-06
-9.35592e-06
-9.36614e-06
-9.37633e-06
-9.38649e-06
-9.39663e-06
-9.40675e-06
-9.41686e-06
-9.42695e-06
-9.43702e-06
-9.44708e-06
-9.45713e-06
-9.46717e-06
-9.4772e-06
-9.48721e-06
-9.49723e-06
-9.50723e-06
-9.51723e-06
-9.52722e-06
-9.53721e-06
-9.5472e-06
-9.55718e-06
-9.56716e-06
-9.57713e-06
-9.58711e-06
-9.59708e-06
-9.60705e-06
-9.61702e-06
-9.62699e-06
-9.63696e-06
-9.64692e-06
-9.65689e-06
-9.66686e-06
-9.67682e-06
-9.68679e-06
-9.69676e-06
-9.70672e-06
-9.71669e-06
-9.72666e-06
-9.73663e-06
-9.74659e-06
-9.75656e-06
-9.76653e-06
-9.7765e-06
-9.78647e-06
-9.79644e-06
-9.80641e-06
-9.81638e-06
-9.82636e-06
-9.83633e-06
-9.8463e-06
-9.85628e-06
-9.86625e-06
-9.87623e-06
-9.8862e-06
-9.89618e-06
-9.90615e-06
-9.91613e-06
-9.92611e-06
-9.93608e-06
-9.94606e-06
-9.95604e-06
-9.96601e-06
-9.97599e-06
-9.98597e-06
-9.99595e-06
-1.00059e-05
-1.00159e-05
-1.00259e-05
-1.00359e-05
-1.00458e-05
-1.00558e-05
-1.00658e-05
-1.00758e-05
-1.00857e-05
-1.00957e-05
-1.01057e-05
-1.01157e-05
-1.01257e-05
-1.01356e-05
-1.01456e-05
-1.01556e-05
-1.01656e-05
-1.01756e-05
-1.01855e-05
-1.01955e-05
-1.02055e-05
-1.02155e-05
-1.02254e-05
-1.02354e-05
-1.02454e-05
-1.02554e-05
-1.02653e-05
-1.02753e-05
-1.02853e-05
-1.02953e-05
-1.03052e-05
-1.03152e-05
-1.03252e-05
-1.03352e-05
-1.03451e-05
-1.03551e-05
-1.03651e-05
-1.03751e-05
-1.0385e-05
-1.0395e-05
-1.0405e-05
-1.0415e-05
-1.04249e-05
-1.04349e-05
-1.04449e-05
-1.04549e-05
-1.04648e-05
-1.04748e-05
-1.04848e-05
-1.04948e-05
-1.05047e-05
-1.05147e-05
-1.05247e-05
-1.05346e-05
-1.05446e-05
-1.05546e-05
-1.05645e-05
-1.05745e-05
-1.05845e-05
-1.05945e-05
-1.06044e-05
-1.06144e-05
-1.06244e-05
-1.06343e-05
-1.06443e-05
-1.06543e-05
-1.06642e-05
-1.06742e-05
-1.06842e-05
-1.06942e-05
-1.07041e-05
-1.07141e-05
-1.07241e-05
-1.0734e-05
-1.0744e-05
-1.0754e-05
-1.0764e-05
-1.07739e-05
-1.07839e-05
-1.07939e-05
-1.08038e-05
-1.08138e-05
-1.08238e-05
-1.08338e-05
-1.08437e-05
-1.08537e-05
-1.08637e-05
-1.08736e-05
-1.08836e-05
-1.08936e-05
-1.09036e-05
-1.09135e-05
-1.09235e-05
-1.09335e-05
-1.09435e-05
-1.09535e-05
-1.09634e-05
-1.09734e-05
-1.09834e-05
-1.09934e-05
-1.10034e-05
-1.10133e-05
-1.10233e-05
-1.10333e-05
-1.10433e-05
-1.10533e-05
-1.10632e-05
-1.10732e-05
-1.10832e-05
-1.10932e-05
-1.11032e-05
-1.11132e-05
-1.11232e-05
-1.11331e-05
-1.11431e-05
-1.11531e-05
-1.11631e-05
-1.11731e-05
-1.11831e-05
-1.11931e-05
-1.12031e-05
-1.12131e-05
-1.1223e-05
-1.1233e-05
-1.1243e-05
-1.1253e-05
-1.1263e-05
-1.1273e-05
-1.1283e-05
-1.1293e-05
-1.1303e-05
-1.1313e-05
-1.1323e-05
-1.1333e-05
-1.1343e-05
-1.1353e-05
-1.1363e-05
-1.13729e-05
-1.13829e-05
-1.13929e-05
-1.14029e-05
-1.14129e-05
-1.14229e-05
-1.14329e-05
-1.14429e-05
-1.14529e-05
-1.14629e-05
-1.14729e-05
-1.14829e-05
-1.14929e-05
-1.15029e-05
-1.15129e-05
-1.15229e-05
-1.15329e-05
-1.15429e-05
-1.15529e-05
-1.15629e-05
-1.15729e-05
-1.15829e-05
-1.15929e-05
-1.16029e-05
-1.16129e-05
-1.1623e-05
-1.1633e-05
-1.1643e-05
-1.1653e-05
-1.1663e-05
-1.1673e-05
-1.1683e-05
-1.1693e-05
-1.17031e-05
-1.17131e-05
-1.17231e-05
-1.17331e-05
-1.17432e-05
-1.17532e-05
-1.17632e-05
-1.17732e-05
-1.17833e-05
-1.17933e-05
-1.18033e-05
-1.18134e-05
-1.18234e-05
-1.18335e-05
-1.18435e-05
-1.18535e-05
-1.18636e-05
-1.18736e-05
-1.18837e-05
-1.18937e-05
-1.19038e-05
-1.19139e-05
-1.19239e-05
-1.1934e-05
-1.1944e-05
-1.19541e-05
-1.19642e-05
-1.19742e-05
-1.19843e-05
-1.19944e-05
-1.20045e-05
-1.20145e-05
-1.20246e-05
-1.20347e-05
-1.20448e-05
-1.20548e-05
-1.20649e-05
-1.2075e-05
-1.20851e-05
-1.20952e-05
-1.21052e-05
-1.21153e-05
-1.21254e-05
-1.21355e-05
-1.21456e-05
-1.21557e-05
-1.21657e-05
-1.21758e-05
-1.21859e-05
-1.2196e-05
-1.2206e-05
-1.22161e-05
-1.22262e-05
-1.22362e-05
-1.22463e-05
-1.22564e-05
-1.22664e-05
-1.22765e-05
-1.22865e-05
-1.22966e-05
-1.23066e-05
-1.23167e-05
-1.23267e-05
-1.23368e-05
-1.23468e-05
-1.23568e-05
-1.23669e-05
-1.23769e-05
-1.23869e-05
-1.2397e-05
-1.2407e-05
-1.2417e-05
-1.2427e-05
-1.2437e-05
-1.24471e-05
-1.24571e-05
-1.24671e-05
-1.24771e-05
-1.24871e-05
-1.24971e-05
-1.25072e-05
-1.25172e-05
-1.25272e-05
-1.25372e-05
-1.25473e-05
-1.25573e-05
-1.25673e-05
-1.25774e-05
-1.25874e-05
-1.25974e-05
-1.26075e-05
-1.26175e-05
-1.26276e-05
-1.26376e-05
-1.26477e-05
-1.26578e-05
-1.26678e-05
-1.26779e-05
-1.2688e-05
-1.26981e-05
-1.27082e-05
-1.27183e-05
-1.27283e-05
-1.27384e-05
-1.27485e-05
-1.27586e-05
-1.27688e-05
-1.27789e-05
-1.2789e-05
-1.27991e-05
-1.28092e-05
-1.28193e-05
-1.28294e-05
-1.28396e-05
-1.28497e-05
-1.28598e-05
-1.28699e-05
-1.288e-05
-1.28901e-05
-1.29003e-05
-1.29104e-05
-1.29205e-05
-1.29306e-05
-1.29407e-05
-1.29508e-05
-1.29609e-05
-1.2971e-05
-1.29811e-05
-1.29912e-05
-1.30013e-05
-1.30114e-05
-1.30215e-05
-1.30316e-05
-1.30417e-05
-1.30518e-05
-1.30619e-05
-1.30719e-05
-1.3082e-05
-1.30921e-05
-1.31022e-05
-1.31123e-05
-1.31224e-05
-1.31325e-05
-1.31426e-05
-1.31526e-05
-1.31627e-05
-1.31728e-05
-1.31829e-05
-1.3193e-05
-1.32031e-05
-1.32132e-05
-1.32233e-05
-1.32334e-05
-1.32434e-05
-1.32535e-05
-1.32636e-05
-1.32737e-05
-1.32838e-05
-1.32939e-05
-1.3304e-05
-1.33141e-05
-1.33242e-05
-1.33342e-05
-1.33443e-05
-1.33544e-05
-1.33645e-05
-1.33746e-05
-1.33847e-05
-1.33948e-05
-1.34049e-05
-1.3415e-05
-1.34251e-05
-1.34352e-05
-1.34453e-05
-1.34554e-05
-1.34656e-05
-1.34757e-05
-1.34858e-05
-1.34959e-05
-1.35061e-05
-1.35162e-05
-1.35264e-05
-1.35365e-05
-1.35467e-05
-1.35569e-05
-1.3567e-05
-1.35772e-05
-1.35874e-05
-1.35976e-05
-1.36077e-05
-1.36179e-05
-1.36281e-05
-1.36383e-05
-1.36485e-05
-1.36587e-05
-1.36689e-05
-1.36791e-05
-1.36893e-05
-1.36995e-05
-1.37096e-05
-1.37198e-05
-1.373e-05
-1.37402e-05
-1.37503e-05
-1.37605e-05
-1.37706e-05
-1.37808e-05
-1.37909e-05
-1.3801e-05
-1.38111e-05
-1.38212e-05
-1.38313e-05
-1.38414e-05
-1.38514e-05
-1.38615e-05
-1.38715e-05
-1.38815e-05
-1.38915e-05
-1.39015e-05
-1.39115e-05
-1.39215e-05
-1.39315e-05
-1.39414e-05
-1.39514e-05
-1.39613e-05
-1.39712e-05
-1.39812e-05
-1.39911e-05
-1.40011e-05
-1.4011e-05
-1.4021e-05
-1.40309e-05
-1.40409e-05
-1.40509e-05
-1.40609e-05
-1.40709e-05
-1.40809e-05
-1.40909e-05
-1.4101e-05
-1.4111e-05
-1.41211e-05
-1.41312e-05
-1.41413e-05
-1.41514e-05
-1.41615e-05
-1.41716e-05
-1.41817e-05
-1.41918e-05
-1.42019e-05
-1.42121e-05
-1.42222e-05
-1.42323e-05
-1.42425e-05
-1.42526e-05
-1.42628e-05
-1.42729e-05
-1.42831e-05
-1.42933e-05
-1.43035e-05
-1.43138e-05
-1.4324e-05
-1.43343e-05
-1.43446e-05
-1.43549e-05
-1.43653e-05
-1.43756e-05
-1.4386e-05
-1.43964e-05
-1.44068e-05
-1.44172e-05
-1.44275e-05
-1.44379e-05
-1.44482e-05
-1.44584e-05
-1.44687e-05
-1.44788e-05
-1.44889e-05
-1.44989e-05
-1.45089e-05
-1.45188e-05
-1.45286e-05
-1.45383e-05
-1.4548e-05
-1.45575e-05
-1.45671e-05
-1.45765e-05
-1.45859e-05
-1.45953e-05
-1.46046e-05
-1.46138e-05
-1.4623e-05
-1.46321e-05
-1.46411e-05
-1.465e-05
-1.46588e-05
-1.46676e-05
-1.46763e-05
-1.46849e-05
-1.46934e-05
-1.4702e-05
-1.47105e-05
-1.47191e-05
-1.47277e-05
-1.47364e-05
-1.47452e-05
-1.47541e-05
-1.47631e-05
-1.4772e-05
-1.47809e-05
-1.47897e-05
-1.47981e-05
-1.4806e-05
-1.48133e-05
-1.48199e-05
-1.48257e-05
-1.48309e-05
-1.48354e-05
-1.48397e-05
-1.48439e-05
-1.48482e-05
-1.4852e-05
-1.48539e-05
-1.48509e-05
-1.48388e-05
-1.48126e-05
-1.47665e-05
-1.46897e-05
-1.45458e-05
-1.42147e-05
-1.33435e-05
-1.08838e-05
-3.32768e-06
2.4073e-05
0.000232712
0.000442401
0.000633498
0.000786518
0.000893768
0.000961483
0.00100134
0.00102382
0.00103617
0.00104286
0.00104645
0.00104836
0.00104937
0.00104989
0.00105016
0.00105028
0.00105034
0.00105035
0.00105035
0.00105033
0.00105031
0.00105028
0.00105025
0.00105022
0.00105019
0.00105016
0.00105014
0.00105011
0.00105008
0.00105005
0.00105002
0.00104999
0.00104996
0.00104993
0.0010499
0.00104988
0.00104985
0.00104982
0.00104979
0.00104976
0.00104974
0.00104971
0.00104968
0.00104965
0.00104962
0.0010496
0.00104957
0.00104954
0.00104952
0.00104949
0.00104946
0.00104944
0.00104941
0.00104938
0.00104936
0.00104933
0.0010493
0.00104928
0.00104925
0.00104923
0.0010492
0.00104917
0.00104915
0.00104912
0.0010491
0.00104907
0.00104905
0.00104902
0.001049
0.00104897
0.00104895
0.00104892
0.0010489
0.00104888
0.00104885
0.00104883
0.0010488
0.00104878
0.00104876
0.00104873
0.00104871
0.00104868
0.00104866
0.00104864
0.00104861
0.00104859
0.00104857
0.00104855
0.00104852
0.0010485
0.00104848
0.00104846
0.00104843
0.00104841
0.00104839
0.00104837
0.00104835
0.00104832
0.0010483
0.00104828
0.00104826
0.00104824
0.00104822
0.0010482
0.00104818
0.00104815
0.00104813
0.00104811
0.00104809
0.00104807
0.00104805
0.00104803
0.00104801
0.00104799
0.00104797
0.00104795
0.00104793
0.00104791
0.00104789
0.00104787
0.00104786
0.00104784
0.00104782
0.0010478
0.00104778
0.00104776
0.00104774
0.00104772
0.00104771
0.00104769
0.00104767
0.00104765
0.00104763
0.00104762
0.0010476
0.00104758
0.00104756
0.00104755
0.00104753
0.00104751
0.00104749
0.00104748
0.00104746
0.00104744
0.00104743
0.00104741
0.00104739
0.00104738
0.00104736
0.00104735
0.00104733
0.00104731
0.0010473
0.00104728
0.00104727
0.00104725
0.00104724
0.00104722
0.00104721
0.00104719
0.00104718
0.00104716
0.00104715
0.00104713
0.00104712
0.0010471
0.00104709
0.00104707
0.00104706
0.00104705
0.00104703
0.00104702
0.00104701
0.00104699
0.00104698
0.00104697
0.00104695
0.00104694
0.00104693
0.00104691
0.0010469
0.00104689
0.00104688
0.00104686
0.00104685
0.00104684
0.00104683
0.00104681
0.0010468
0.00104679
0.00104678
0.00104677
0.00104676
0.00104674
0.00104673
0.00104672
0.00104671
0.0010467
0.00104669
0.00104668
0.00104667
0.00104666
0.00104665
0.00104664
0.00104663
0.00104662
0.00104661
0.0010466
0.00104659
0.00104658
0.00104657
0.00104656
0.00104655
0.00104654
0.00104653
0.00104652
0.00104651
0.00104651
0.0010465
0.00104649
0.00104648
0.00104647
0.00104646
0.00104646
0.00104645
0.00104644
0.00104643
0.00104642
0.00104642
0.00104641
0.0010464
0.00104639
0.00104639
0.00104638
0.00104637
0.00104637
0.00104636
0.00104635
0.00104635
0.00104634
0.00104633
0.00104633
0.00104632
0.00104632
0.00104631
0.0010463
0.0010463
0.00104629
0.00104629
0.00104628
0.00104628
0.00104627
0.00104627
0.00104626
0.00104626
0.00104625
0.00104625
0.00104624
0.00104624
0.00104624
0.00104623
0.00104623
0.00104622
0.00104622
0.00104622
0.00104621
0.00104621
0.00104621
0.0010462
0.0010462
0.0010462
0.00104619
0.00104619
0.00104619
0.00104619
0.00104618
0.00104618
0.00104618
0.00104618
0.00104617
0.00104617
0.00104617
0.00104617
0.00104617
0.00104617
0.00104616
0.00104616
0.00104616
0.00104616
0.00104616
0.00104616
0.00104616
0.00104616
0.00104616
0.00104616
0.00104616
)
;

boundaryField
{
    fixedWall
    {
        type            calculated;
        value           uniform 0;
    }
    outlet
    {
        type            calculated;
        value           uniform 0.00104616;
    }
    defaultFaces
    {
        type            empty;
    }
}


// ************************************************************************* //
