/*--------------------------------*- C++ -*----------------------------------*\
| =========                 |                                                 |
| \\      /  F ield         | OpenFOAM: The Open Source CFD Toolbox           |
|  \\    /   O peration     | Version:  2406                                  |
|   \\  /    A nd           | Website:  www.openfoam.com                      |
|    \\/     M anipulation  |                                                 |
\*---------------------------------------------------------------------------*/
FoamFile
{
    version     2.0;
    format      ascii;
    arch        "LSB;label=32;scalar=64";
    class       volScalarField;
    location    "4.4";
    object      Qdot;
}
// * * * * * * * * * * * * * * * * * * * * * * * * * * * * * * * * * * * * * //

dimensions      [1 -1 -3 0 0 0 0];

internalField   nonuniform List<scalar> 
1000
(
-2.40458e-08
-2.40458e-08
-2.95544e-08
3.42714e-08
6.45568e-07
3.20199e-06
1.23137e-05
3.89342e-05
0.000104265
0.00024467
0.000515741
0.000994816
0.00178107
0.00299324
0.00476495
0.00723779
0.0105533
0.0148444
0.0202273
0.0267939
0.0346067
0.0436944
0.0540502
0.065632
0.078364
0.0921407
0.106831
0.122284
0.138335
0.154812
0.171538
0.188344
0.205063
0.221546
0.237653
0.253264
0.268278
0.28261
0.296195
0.308986
0.320955
0.332086
0.342378
0.351844
0.360505
0.368392
0.375541
0.381994
0.387797
0.392998
0.397645
0.401787
0.405474
0.408751
0.411664
0.414256
0.416566
0.418633
0.420491
0.422171
0.423702
0.425111
0.426421
0.427652
0.428824
0.429951
0.431049
0.432129
0.433202
0.434277
0.43536
0.436458
0.437577
0.438718
0.439887
0.441085
0.442313
0.443573
0.444865
0.446189
0.447545
0.448932
0.45035
0.451798
0.453274
0.454778
0.456308
0.457863
0.459441
0.461041
0.462656
0.464287
0.465946
0.467623
0.469316
0.471024
0.472746
0.474481
0.476227
0.477986
0.479754
0.481532
0.48332
0.485117
0.486921
0.488734
0.490554
0.492381
0.494214
0.496055
0.497902
0.499755
0.501615
0.503481
0.505353
0.507231
0.509115
0.511005
0.512901
0.514804
0.516713
0.518629
0.520551
0.52248
0.524415
0.526358
0.528308
0.530265
0.532229
0.534202
0.536182
0.53817
0.540166
0.54217
0.544183
0.546205
0.548235
0.550275
0.552323
0.554381
0.556449
0.558526
0.560613
0.562711
0.564818
0.566936
0.569064
0.571203
0.573353
0.575514
0.577676
0.579843
0.582041
0.584251
0.586471
0.588703
0.590947
0.593202
0.595469
0.597749
0.60004
0.602345
0.604662
0.606992
0.609334
0.61169
0.614059
0.616442
0.618838
0.621248
0.623671
0.626109
0.62856
0.631026
0.633506
0.636
0.638509
0.641033
0.643572
0.646125
0.648694
0.651278
0.653877
0.656491
0.659121
0.661767
0.664428
0.667106
0.6698
0.672509
0.675235
0.677978
0.680737
0.683513
0.686305
0.689115
0.691941
0.694785
0.697646
0.700525
0.703421
0.706335
0.709267
0.712216
0.715184
0.718171
0.721175
0.724198
0.72724
0.730301
0.733381
0.73648
0.739598
0.742736
0.745893
0.74907
0.752267
0.755483
0.758721
0.761978
0.765256
0.768555
0.771875
0.775215
0.778577
0.781961
0.785365
0.788792
0.792241
0.795711
0.799204
0.80272
0.806258
0.809819
0.813403
0.81701
0.820641
0.824296
0.827974
0.831676
0.835403
0.839154
0.84293
0.846731
0.850557
0.854408
0.858284
0.862187
0.866116
0.87007
0.874052
0.878059
0.882094
0.886156
0.890246
0.894363
0.898508
0.902681
0.906882
0.911112
0.915371
0.919659
0.923977
0.928324
0.932701
0.937108
0.941546
0.946015
0.950515
0.955046
0.959609
0.964203
0.96883
0.97349
0.978183
0.982909
0.987668
0.992461
0.997289
1.00215
1.00705
1.01198
1.01695
1.02195
1.02699
1.03207
1.03719
1.04234
1.04753
1.05276
1.05803
1.06333
1.06868
1.07407
1.0795
1.08497
1.09048
1.09603
1.10159
1.10718
1.11287
1.1186
1.12437
1.13018
1.13605
1.14195
1.14791
1.15391
1.15996
1.16605
1.17219
1.17839
1.18463
1.19092
1.19726
1.20365
1.2101
1.21659
1.22314
1.22975
1.2364
1.24311
1.24987
1.25669
1.26357
1.2705
1.27749
1.28454
1.29164
1.29881
1.30603
1.31331
1.32065
1.32806
1.33552
1.34305
1.35064
1.3583
1.36602
1.3738
1.38165
1.38957
1.39755
1.4056
1.41372
1.42191
1.43017
1.4385
1.4469
1.45537
1.46391
1.47253
1.48123
1.49
1.49884
1.50776
1.51676
1.52584
1.535
1.54424
1.55357
1.56297
1.57246
1.58204
1.5917
1.60145
1.61128
1.62121
1.63122
1.64133
1.65153
1.66183
1.67222
1.68271
1.69329
1.70398
1.71476
1.72565
1.73664
1.74774
1.75894
1.77025
1.78167
1.7932
1.80485
1.8166
1.82848
1.84047
1.85258
1.86481
1.87716
1.88964
1.90224
1.91497
1.92783
1.94083
1.95395
1.96722
1.98062
1.99416
2.00775
2.02146
2.03543
2.04955
2.06381
2.07823
2.0928
2.10752
2.12241
2.13745
2.15266
2.16803
2.18357
2.19929
2.21517
2.23123
2.24747
2.26388
2.28048
2.29726
2.31423
2.33139
2.34874
2.36629
2.38403
2.40198
2.42012
2.43847
2.45703
2.47579
2.49477
2.51396
2.53338
2.55301
2.57287
2.59295
2.61327
2.63382
2.6546
2.67563
2.69689
2.71841
2.74018
2.7622
2.78448
2.80703
2.82971
2.8526
2.87596
2.8996
2.92352
2.94774
2.97225
2.99706
3.02217
3.0476
3.07334
3.0994
3.1258
3.15253
3.1796
3.20702
3.2348
3.26294
3.29145
3.32033
3.3496
3.37926
3.40932
3.43978
3.47066
3.50196
3.53369
3.56585
3.59847
3.63154
3.66508
3.69908
3.73357
3.76855
3.80404
3.84002
3.87653
3.91356
3.95113
3.98917
4.02751
4.06677
4.10661
4.14704
4.18808
4.22973
4.272
4.3149
4.35844
4.40265
4.44752
4.49307
4.53932
4.58628
4.63396
4.68237
4.73155
4.78149
4.83221
4.88374
4.93609
4.98927
5.04331
5.09823
5.15404
5.21078
5.26845
5.32708
5.3867
5.44732
5.50898
5.57169
5.63548
5.70038
5.76642
5.83322
5.90098
5.97052
6.04127
6.11326
6.18654
6.26112
6.33706
6.41437
6.49309
6.57325
6.6549
6.73805
6.82276
6.90907
6.997
7.0866
7.17791
7.27099
7.36586
7.46259
7.56123
7.66181
7.7644
7.86906
7.97584
8.0848
8.196
8.30952
8.42541
8.54374
8.66456
8.78678
8.91255
9.04114
9.17262
9.30704
9.44446
9.58496
9.72864
9.8756
10.0259
10.1797
10.3372
10.4983
10.6632
10.8321
11.0051
11.1823
11.3638
11.5499
11.7406
11.936
12.1365
12.342
12.5528
12.7692
12.9911
13.219
13.4529
13.693
13.9396
14.1929
14.4532
14.7206
14.9954
15.2779
15.5683
15.867
16.1743
16.4888
16.8112
17.1459
17.4904
17.8452
18.2106
18.5872
18.9753
19.3756
19.7884
20.2145
20.6542
21.1082
21.5772
22.0618
22.5628
23.0808
23.6167
24.1713
24.7455
25.3401
25.9562
26.5948
27.257
27.9439
28.6568
29.3969
30.1657
30.9647
31.7953
32.6594
33.5588
34.4953
35.4712
36.4887
37.5502
38.6584
39.8163
41.027
42.2843
43.5982
44.986
46.4405
47.9667
49.5695
51.2542
53.0268
54.8933
56.8605
58.9355
61.1263
63.4413
65.8898
68.4819
71.2287
74.1425
77.2368
80.5265
84.0283
87.7608
91.7447
96.003
100.562
105.449
110.699
116.346
122.431
128.999
136.102
143.796
152.147
161.183
170.972
181.736
193.5
206.397
220.574
236.21
253.513
272.736
294.179
318.208
345.264
375.883
410.715
450.555
496.379
549.402
610.962
682.864
768.444
870.261
992.601
1141.27
1324.3
1553.15
1844.49
2223.1
2726.53
3412.69
4373.47
5761.91
7852.64
11184.9
16915.4
27736.3
50483.4
104358
249867
712106
2.38261e+06
9.18046e+06
5.76676e+07
742186
2817.53
15.9862
0.309781
0.022736
0.00469061
0.0019018
0.0011531
0.000877845
0.000757795
0.00070027
0.000671187
0.000656232
0.000648343
0.000644076
0.000641947
0.000640734
0.000640124
0.000639762
0.000639645
0.000639547
0.000639424
0.000639474
0.000639464
0.000639463
0.000639464
0.000639395
0.000639474
0.000639479
0.000639485
0.000639418
0.000639424
0.000639504
0.000639436
0.000639514
0.00063945
0.000639458
0.000639535
0.000639542
0.000639548
0.000639554
0.00063949
0.00063957
0.000639503
0.000639583
0.000639588
0.000639596
0.000639602
0.000639536
0.000639614
0.000639547
0.000639627
0.000639632
0.00063964
0.000639645
0.000639651
0.000639586
0.000639593
0.0006396
0.000639678
0.000639613
0.000639694
0.0006397
0.000639633
0.000639714
0.000639648
0.000639728
0.000639665
0.00063967
0.000639748
0.000639755
0.000639688
0.000639767
0.000639773
0.000639781
0.000639787
0.000639793
0.0006398
0.000639734
0.000639814
0.000639818
0.000639827
0.000639834
0.000639841
0.000639773
0.000639706
0.000639783
0.000639721
0.0006398
0.000639734
0.000639738
0.000639819
0.000639753
0.000639832
0.000639837
0.000639847
0.000639852
0.000639859
0.000639864
0.000639797
0.000639877
0.000639811
0.000639889
0.000639898
0.000639903
0.000639909
0.000639916
0.000639922
0.000639856
0.000639935
0.000639941
0.000639949
0.000639955
0.000639888
0.000639966
0.000639972
0.00063998
0.000639987
0.00063992
0.000639999
0.000640004
0.000640013
0.000640018
0.000640026
0.000640034
0.000640042
0.000640049
0.000639982
0.000640062
0.000640072
0.000640078
0.000640012
0.00064009
0.000640097
0.000640104
0.000640111
0.000640116
0.000640123
0.000640058
0.000640138
0.000640071
0.000640152
0.000640158
0.000640164
0.000640171
0.000640178
0.000640185
0.000640192
0.0006402
0.000640205
0.000640211
0.000640144
0.000640225
0.000640231
0.000640236
0.000640241
0.000640249
0.000640254
0.00064026
0.000640265
0.0006402
0.00064028
0.000640287
0.000640293
0.000640225
0.000640304
0.000640311
0.000640244
0.000640325
0.000640258
0.000640338
0.000640344
0.00064028
0.00064036
0.000640366
0.000640375
0.000640308
0.000640316
0.000640396
0.000640405
0.000640409
0.000640415
0.000640423
0.000640355
0.000640435
0.000640443
0.000640448
0.000640455
0.000640391
0.000640468
0.000640403
0.000640411
0.000640491
0.000640498
0.000640504
0.000640512
0.000640518
0.000640526
0.000640532
0.000640538
0.000640544
0.000640551
0.000640484
0.00064049
0.000640497
0.000640502
0.000640507
0.000640515
0.000640521
0.000640527
0.000640534
0.000640468
0.000640547
0.000640554
0.00064056
0.000640567
0.000640574
0.00064058
0.000640587
0.000640594
0.0006406
0.000640607
0.000640613
0.00064062
0.000640626
0.000640634
0.00064064
0.000640645
0.000640652
0.000640659
0.000640666
0.000640672
0.000640679
0.000640685
0.000640691
0.000640697
0.000640707
0.000640712
0.000640718
0.000640726
0.000640732
0.000640739
0.000640746
0.000640751
0.000640758
0.000640764
0.000640771
0.000640779
0.000640784
0.000640791
0.000640799
0.000640805
0.000640809
0.000640817
0.000640824
0.000640758
0.000640764
0.000640843
0.00064085
0.000640782
0.000640862
0.000640798
0.000640875
0.000640883
0.00064089
0.000640896
0.000640905
0.00064091
0.000640917
0.000640923
0.000640931
0.000640937
0.000640944
0.000640951
0.000640959
0.000640964
0.000640971
0.000640977
0.000640984
0.000640991
0.000640997
0.00064093
0.00064101
0.000641017
0.00064095
0.000641028
0.000641035
0.000641043
0.000641048
0.000641052
0.000641058
0.000641066
0.000641072
0.000641082
0.000641087
0.000641096
)
;

boundaryField
{
    fixedWall
    {
        type            calculated;
        value           uniform 0;
    }
    outlet
    {
        type            calculated;
        value           uniform 0;
    }
    defaultFaces
    {
        type            empty;
    }
}


// ************************************************************************* //
