/*--------------------------------*- C++ -*----------------------------------*\
| =========                 |                                                 |
| \\      /  F ield         | OpenFOAM: The Open Source CFD Toolbox           |
|  \\    /   O peration     | Version:  2406                                  |
|   \\  /    A nd           | Website:  www.openfoam.com                      |
|    \\/     M anipulation  |                                                 |
\*---------------------------------------------------------------------------*/
FoamFile
{
    version     2.0;
    format      ascii;
    arch        "LSB;label=32;scalar=64";
    class       volScalarField;
    location    "0.2";
    object      CO2;
}
// * * * * * * * * * * * * * * * * * * * * * * * * * * * * * * * * * * * * * //

dimensions      [0 0 0 0 0 0 0];

internalField   nonuniform List<scalar> 
1000
(
0.0709265
0.0709265
0.0709265
0.0709264
0.0709263
0.0709263
0.0709262
0.0709261
0.0709259
0.0709258
0.0709256
0.0709254
0.0709251
0.0709247
0.0709241
0.0709235
0.0709226
0.0709215
0.0709201
0.0709182
0.0709158
0.0709126
0.0709084
0.0709028
0.0708951
0.0708843
0.0708686
0.0708445
0.0708054
0.070737
0.0706078
0.0703475
0.0697978
0.0685951
0.0658466
0.0588139
0.0348649
0.0185265
0.00952388
0.00475848
0.00231975
0.00110694
0.000518264
0.000238488
0.000108001
4.81801e-05
2.11905e-05
9.19497e-06
3.93886e-06
1.66668e-06
6.96999e-07
2.88224e-07
1.17913e-07
4.77465e-08
1.91474e-08
7.60977e-09
3.00072e-09
1.1762e-09
4.60912e-10
1.7874e-10
7.62396e-11
3.47189e-11
1.7285e-11
1.22714e-11
1.0026e-11
8.81231e-12
8.35339e-12
8.21943e-12
8.13797e-12
8.11658e-12
8.10421e-12
8.10064e-12
8.09916e-12
8.09823e-12
8.09797e-12
8.09786e-12
8.09781e-12
8.09779e-12
8.09777e-12
8.09777e-12
8.09776e-12
8.09776e-12
8.09776e-12
8.09776e-12
8.09775e-12
8.09775e-12
8.09775e-12
8.09775e-12
8.09775e-12
8.09774e-12
8.09774e-12
8.09774e-12
8.09774e-12
8.09773e-12
8.09773e-12
8.09773e-12
8.09773e-12
8.09773e-12
8.09773e-12
8.09773e-12
8.09772e-12
8.09772e-12
8.09772e-12
8.09772e-12
8.09772e-12
8.09772e-12
8.09772e-12
8.09772e-12
8.09771e-12
8.09771e-12
8.09771e-12
8.09771e-12
8.09771e-12
8.09771e-12
8.09771e-12
8.0977e-12
8.0977e-12
8.0977e-12
8.0977e-12
8.0977e-12
8.0977e-12
8.0977e-12
8.0977e-12
8.0977e-12
8.0977e-12
8.0977e-12
8.09769e-12
8.09769e-12
8.09769e-12
8.09769e-12
8.09769e-12
8.09769e-12
8.09769e-12
8.09769e-12
8.09769e-12
8.09769e-12
8.09769e-12
8.09768e-12
8.09768e-12
8.09768e-12
8.09768e-12
8.09768e-12
8.09768e-12
8.09768e-12
8.09768e-12
8.09768e-12
8.09768e-12
8.09768e-12
8.09768e-12
8.09768e-12
8.09768e-12
8.09767e-12
8.09767e-12
8.09767e-12
8.09767e-12
8.09767e-12
8.09767e-12
8.09767e-12
8.09767e-12
8.09767e-12
8.09767e-12
8.09767e-12
8.09767e-12
8.09767e-12
8.09767e-12
8.09766e-12
8.09766e-12
8.09766e-12
8.09766e-12
8.09766e-12
8.09766e-12
8.09766e-12
8.09766e-12
8.09766e-12
8.09766e-12
8.09766e-12
8.09766e-12
8.09766e-12
8.09765e-12
8.09765e-12
8.09765e-12
8.09765e-12
8.09765e-12
8.09765e-12
8.09765e-12
8.09765e-12
8.09765e-12
8.09765e-12
8.09765e-12
8.09764e-12
8.09764e-12
8.09764e-12
8.09764e-12
8.09764e-12
8.09764e-12
8.09764e-12
8.09764e-12
8.09764e-12
8.09764e-12
8.09763e-12
8.09763e-12
8.09763e-12
8.09763e-12
8.09763e-12
8.09763e-12
8.09763e-12
8.09763e-12
8.09763e-12
8.09762e-12
8.09762e-12
8.09762e-12
8.09762e-12
8.09762e-12
8.09762e-12
8.09762e-12
8.09762e-12
8.09762e-12
8.09762e-12
8.09761e-12
8.09761e-12
8.09761e-12
8.09761e-12
8.09761e-12
8.09761e-12
8.09761e-12
8.09761e-12
8.0976e-12
8.0976e-12
8.0976e-12
8.0976e-12
8.0976e-12
8.0976e-12
8.0976e-12
8.0976e-12
8.0976e-12
8.09759e-12
8.09759e-12
8.09759e-12
8.09759e-12
8.09759e-12
8.09759e-12
8.09759e-12
8.09758e-12
8.09758e-12
8.09758e-12
8.09758e-12
8.09758e-12
8.09758e-12
8.09758e-12
8.09758e-12
8.09758e-12
8.09757e-12
8.09757e-12
8.09757e-12
8.09757e-12
8.09757e-12
8.09757e-12
8.09757e-12
8.09757e-12
8.09756e-12
8.09756e-12
8.09756e-12
8.09756e-12
8.09756e-12
8.09756e-12
8.09756e-12
8.09755e-12
8.09755e-12
8.09755e-12
8.09755e-12
8.09755e-12
8.09755e-12
8.09755e-12
8.09755e-12
8.09755e-12
8.09754e-12
8.09754e-12
8.09754e-12
8.09754e-12
8.09754e-12
8.09754e-12
8.09754e-12
8.09754e-12
8.09754e-12
8.09753e-12
8.09753e-12
8.09753e-12
8.09753e-12
8.09753e-12
8.09753e-12
8.09753e-12
8.09753e-12
8.09753e-12
8.09752e-12
8.09752e-12
8.09752e-12
8.09752e-12
8.09752e-12
8.09752e-12
8.09752e-12
8.09752e-12
8.09752e-12
8.09752e-12
8.09751e-12
8.09751e-12
8.09751e-12
8.09751e-12
8.09751e-12
8.09751e-12
8.09751e-12
8.09751e-12
8.09751e-12
8.09751e-12
8.09751e-12
8.0975e-12
8.0975e-12
8.0975e-12
8.0975e-12
8.0975e-12
8.0975e-12
8.0975e-12
8.0975e-12
8.0975e-12
8.0975e-12
8.0975e-12
8.0975e-12
8.0975e-12
8.0975e-12
8.0975e-12
8.09749e-12
8.09749e-12
8.09749e-12
8.09749e-12
8.09749e-12
8.09749e-12
8.09749e-12
8.09749e-12
8.09749e-12
8.09749e-12
8.09749e-12
8.09749e-12
8.09749e-12
8.09749e-12
8.09749e-12
8.09749e-12
8.09749e-12
8.09749e-12
8.09749e-12
8.09749e-12
8.09748e-12
8.09748e-12
8.09748e-12
8.09748e-12
8.09748e-12
8.09748e-12
8.09748e-12
8.09748e-12
8.09748e-12
8.09748e-12
8.09748e-12
8.09748e-12
8.09748e-12
8.09748e-12
8.09748e-12
8.09748e-12
8.09748e-12
8.09748e-12
8.09748e-12
8.09748e-12
8.09748e-12
8.09748e-12
8.09748e-12
8.09748e-12
8.09748e-12
8.09748e-12
8.09748e-12
8.09748e-12
8.09748e-12
8.09748e-12
8.09748e-12
8.09748e-12
8.09748e-12
8.09748e-12
8.09748e-12
8.09748e-12
8.09748e-12
8.09748e-12
8.09748e-12
8.09748e-12
8.09748e-12
8.09748e-12
8.09748e-12
8.09748e-12
8.09748e-12
8.09748e-12
8.09748e-12
8.09748e-12
8.09748e-12
8.09748e-12
8.09748e-12
8.09748e-12
8.09748e-12
8.09748e-12
8.09748e-12
8.09748e-12
8.09748e-12
8.09748e-12
8.09748e-12
8.09748e-12
8.09749e-12
8.09749e-12
8.09749e-12
8.09749e-12
8.09749e-12
8.09749e-12
8.09749e-12
8.09749e-12
8.09749e-12
8.09749e-12
8.09749e-12
8.09749e-12
8.09749e-12
8.09749e-12
8.09749e-12
8.09749e-12
8.09749e-12
8.09749e-12
8.09749e-12
8.09749e-12
8.09749e-12
8.0975e-12
8.0975e-12
8.0975e-12
8.0975e-12
8.0975e-12
8.0975e-12
8.0975e-12
8.0975e-12
8.0975e-12
8.0975e-12
8.0975e-12
8.0975e-12
8.0975e-12
8.0975e-12
8.0975e-12
8.0975e-12
8.0975e-12
8.09751e-12
8.09751e-12
8.09751e-12
8.09751e-12
8.09751e-12
8.09751e-12
8.09751e-12
8.09751e-12
8.09751e-12
8.09751e-12
8.09751e-12
8.09752e-12
8.09752e-12
8.09752e-12
8.09752e-12
8.09752e-12
8.09752e-12
8.09752e-12
8.09752e-12
8.09752e-12
8.09752e-12
8.09752e-12
8.09752e-12
8.09752e-12
8.09753e-12
8.09753e-12
8.09753e-12
8.09753e-12
8.09753e-12
8.09753e-12
8.09753e-12
8.09753e-12
8.09753e-12
8.09753e-12
8.09753e-12
8.09754e-12
8.09754e-12
8.09754e-12
8.09754e-12
8.09754e-12
8.09754e-12
8.09754e-12
8.09754e-12
8.09754e-12
8.09755e-12
8.09755e-12
8.09755e-12
8.09755e-12
8.09755e-12
8.09755e-12
8.09755e-12
8.09755e-12
8.09755e-12
8.09755e-12
8.09756e-12
8.09756e-12
8.09756e-12
8.09756e-12
8.09756e-12
8.09756e-12
8.09756e-12
8.09756e-12
8.09756e-12
8.09757e-12
8.09757e-12
8.09757e-12
8.09757e-12
8.09757e-12
8.09757e-12
8.09757e-12
8.09757e-12
8.09758e-12
8.09758e-12
8.09758e-12
8.09758e-12
8.09758e-12
8.09758e-12
8.09758e-12
8.09758e-12
8.09759e-12
8.09759e-12
8.09759e-12
8.09759e-12
8.09759e-12
8.09759e-12
8.09759e-12
8.09759e-12
8.0976e-12
8.0976e-12
8.0976e-12
8.0976e-12
8.0976e-12
8.0976e-12
8.0976e-12
8.0976e-12
8.09761e-12
8.09761e-12
8.09761e-12
8.09761e-12
8.09761e-12
8.09761e-12
8.09761e-12
8.09762e-12
8.09762e-12
8.09762e-12
8.09762e-12
8.09762e-12
8.09762e-12
8.09762e-12
8.09763e-12
8.09763e-12
8.09763e-12
8.09763e-12
8.09763e-12
8.09763e-12
8.09763e-12
8.09764e-12
8.09764e-12
8.09764e-12
8.09764e-12
8.09764e-12
8.09764e-12
8.09764e-12
8.09765e-12
8.09765e-12
8.09765e-12
8.09765e-12
8.09765e-12
8.09765e-12
8.09765e-12
8.09766e-12
8.09766e-12
8.09766e-12
8.09766e-12
8.09766e-12
8.09766e-12
8.09767e-12
8.09767e-12
8.09767e-12
8.09767e-12
8.09767e-12
8.09767e-12
8.09768e-12
8.09768e-12
8.09768e-12
8.09768e-12
8.09768e-12
8.09768e-12
8.09769e-12
8.09769e-12
8.09769e-12
8.09769e-12
8.09769e-12
8.09769e-12
8.0977e-12
8.0977e-12
8.0977e-12
8.0977e-12
8.0977e-12
8.0977e-12
8.0977e-12
8.09771e-12
8.09771e-12
8.09771e-12
8.09771e-12
8.09771e-12
8.09772e-12
8.09772e-12
8.09772e-12
8.09772e-12
8.09772e-12
8.09772e-12
8.09773e-12
8.09773e-12
8.09773e-12
8.09773e-12
8.09773e-12
8.09773e-12
8.09774e-12
8.09774e-12
8.09774e-12
8.09774e-12
8.09774e-12
8.09775e-12
8.09775e-12
8.09775e-12
8.09775e-12
8.09775e-12
8.09776e-12
8.09776e-12
8.09776e-12
8.09776e-12
8.09776e-12
8.09776e-12
8.09777e-12
8.09777e-12
8.09777e-12
8.09777e-12
8.09777e-12
8.09778e-12
8.09778e-12
8.09778e-12
8.09778e-12
8.09778e-12
8.09779e-12
8.09779e-12
8.09779e-12
8.09779e-12
8.09779e-12
8.0978e-12
8.0978e-12
8.0978e-12
8.0978e-12
8.0978e-12
8.09781e-12
8.09781e-12
8.09781e-12
8.09781e-12
8.09781e-12
8.09782e-12
8.09782e-12
8.09782e-12
8.09782e-12
8.09782e-12
8.09783e-12
8.09783e-12
8.09783e-12
8.09783e-12
8.09784e-12
8.09784e-12
8.09784e-12
8.09784e-12
8.09784e-12
8.09785e-12
8.09785e-12
8.09785e-12
8.09785e-12
8.09785e-12
8.09786e-12
8.09786e-12
8.09786e-12
8.09786e-12
8.09787e-12
8.09787e-12
8.09787e-12
8.09787e-12
8.09788e-12
8.09788e-12
8.09788e-12
8.09788e-12
8.09789e-12
8.09789e-12
8.09789e-12
8.09789e-12
8.09789e-12
8.0979e-12
8.0979e-12
8.0979e-12
8.0979e-12
8.09791e-12
8.09791e-12
8.09791e-12
8.09791e-12
8.09792e-12
8.09792e-12
8.09792e-12
8.09792e-12
8.09793e-12
8.09793e-12
8.09793e-12
8.09793e-12
8.09794e-12
8.09794e-12
8.09794e-12
8.09794e-12
8.09795e-12
8.09795e-12
8.09795e-12
8.09795e-12
8.09796e-12
8.09796e-12
8.09796e-12
8.09796e-12
8.09797e-12
8.09797e-12
8.09797e-12
8.09797e-12
8.09798e-12
8.09798e-12
8.09798e-12
8.09798e-12
8.09799e-12
8.09799e-12
8.09799e-12
8.098e-12
8.098e-12
8.098e-12
8.098e-12
8.09801e-12
8.09801e-12
8.09801e-12
8.09801e-12
8.09802e-12
8.09802e-12
8.09802e-12
8.09803e-12
8.09803e-12
8.09803e-12
8.09803e-12
8.09804e-12
8.09804e-12
8.09804e-12
8.09804e-12
8.09805e-12
8.09805e-12
8.09805e-12
8.09806e-12
8.09806e-12
8.09806e-12
8.09807e-12
8.09807e-12
8.09807e-12
8.09807e-12
8.09808e-12
8.09808e-12
8.09808e-12
8.09809e-12
8.09809e-12
8.09809e-12
8.0981e-12
8.0981e-12
8.0981e-12
8.0981e-12
8.09811e-12
8.09811e-12
8.09811e-12
8.09812e-12
8.09812e-12
8.09812e-12
8.09813e-12
8.09813e-12
8.09813e-12
8.09813e-12
8.09814e-12
8.09814e-12
8.09814e-12
8.09815e-12
8.09815e-12
8.09816e-12
8.09816e-12
8.09816e-12
8.09816e-12
8.09817e-12
8.09817e-12
8.09817e-12
8.09818e-12
8.09818e-12
8.09818e-12
8.09819e-12
8.09819e-12
8.09819e-12
8.0982e-12
8.0982e-12
8.0982e-12
8.09821e-12
8.09821e-12
8.09821e-12
8.09822e-12
8.09822e-12
8.09822e-12
8.09823e-12
8.09823e-12
8.09823e-12
8.09823e-12
8.09824e-12
8.09824e-12
8.09824e-12
8.09825e-12
8.09825e-12
8.09825e-12
8.09826e-12
8.09826e-12
8.09827e-12
8.09827e-12
8.09827e-12
8.09828e-12
8.09828e-12
8.09828e-12
8.09829e-12
8.09829e-12
8.09829e-12
8.0983e-12
8.0983e-12
8.0983e-12
8.09831e-12
8.09831e-12
8.09831e-12
8.09832e-12
8.09832e-12
8.09833e-12
8.09833e-12
8.09833e-12
8.09834e-12
8.09834e-12
8.09834e-12
8.09835e-12
8.09835e-12
8.09835e-12
8.09836e-12
8.09836e-12
8.09837e-12
8.09837e-12
8.09837e-12
8.09838e-12
8.09838e-12
8.09838e-12
8.09839e-12
8.09839e-12
8.09839e-12
8.0984e-12
8.0984e-12
8.09841e-12
8.09841e-12
8.09841e-12
8.09842e-12
8.09842e-12
8.09842e-12
8.09843e-12
8.09843e-12
8.09844e-12
8.09844e-12
8.09844e-12
8.09845e-12
8.09845e-12
8.09845e-12
8.09846e-12
8.09846e-12
8.09847e-12
8.09847e-12
8.09847e-12
8.09848e-12
8.09848e-12
8.09848e-12
8.09849e-12
8.09849e-12
8.0985e-12
8.0985e-12
8.09851e-12
8.09851e-12
8.09851e-12
8.09852e-12
8.09852e-12
8.09852e-12
8.09853e-12
8.09853e-12
8.09853e-12
8.09854e-12
8.09854e-12
8.09855e-12
8.09855e-12
8.09856e-12
8.09856e-12
8.09856e-12
8.09857e-12
8.09857e-12
8.09858e-12
8.09858e-12
8.09858e-12
8.09859e-12
8.09859e-12
8.09859e-12
8.0986e-12
8.0986e-12
8.0986e-12
8.09861e-12
8.09861e-12
8.09862e-12
8.09862e-12
8.09862e-12
8.09863e-12
8.09863e-12
8.09864e-12
8.09864e-12
8.09864e-12
8.09865e-12
8.09865e-12
8.09866e-12
8.09866e-12
8.09867e-12
8.09867e-12
8.09867e-12
8.09868e-12
8.09868e-12
8.09869e-12
8.09869e-12
8.09869e-12
8.0987e-12
8.0987e-12
8.09871e-12
8.09871e-12
8.09871e-12
8.09872e-12
8.09872e-12
8.09872e-12
8.09873e-12
8.09873e-12
8.09874e-12
8.09874e-12
8.09874e-12
8.09875e-12
8.09875e-12
8.09876e-12
8.09876e-12
8.09876e-12
8.09877e-12
8.09877e-12
8.09878e-12
8.09878e-12
8.09878e-12
8.09879e-12
8.09879e-12
8.0988e-12
8.0988e-12
8.09881e-12
8.09881e-12
8.09881e-12
8.09882e-12
8.09882e-12
8.09882e-12
8.09883e-12
8.09883e-12
8.09884e-12
8.09884e-12
8.09884e-12
8.09885e-12
8.09885e-12
8.09886e-12
8.09886e-12
8.09886e-12
8.09887e-12
8.09887e-12
8.09888e-12
8.09888e-12
8.09888e-12
8.09889e-12
8.09888e-12
8.09886e-12
8.09876e-12
8.09841e-12
8.09729e-12
8.094e-12
8.08498e-12
8.06139e-12
)
;

boundaryField
{
    fixedWall
    {
        type            zeroGradient;
    }
    outlet
    {
        type            inletOutlet;
        inletValue      uniform 0;
        value           uniform 8.06139e-12;
    }
    defaultFaces
    {
        type            empty;
    }
}


// ************************************************************************* //
