/*--------------------------------*- C++ -*----------------------------------*\
| =========                 |                                                 |
| \\      /  F ield         | OpenFOAM: The Open Source CFD Toolbox           |
|  \\    /   O peration     | Version:  2406                                  |
|   \\  /    A nd           | Website:  www.openfoam.com                      |
|    \\/     M anipulation  |                                                 |
\*---------------------------------------------------------------------------*/
FoamFile
{
    version     2.0;
    format      ascii;
    arch        "LSB;label=32;scalar=64";
    class       volScalarField;
    location    "0.2";
    object      H2O;
}
// * * * * * * * * * * * * * * * * * * * * * * * * * * * * * * * * * * * * * //

dimensions      [0 0 0 0 0 0 0];

internalField   nonuniform List<scalar> 
1000
(
0.0580669
0.0580669
0.0580669
0.0580668
0.0580668
0.0580667
0.0580666
0.0580665
0.0580664
0.0580663
0.0580662
0.058066
0.0580657
0.0580654
0.058065
0.0580644
0.0580637
0.0580628
0.0580616
0.0580601
0.0580581
0.0580555
0.0580521
0.0580475
0.0580412
0.0580323
0.0580195
0.0579998
0.0579678
0.0579118
0.057806
0.0575929
0.0571429
0.0561582
0.0539081
0.0481504
0.0285436
0.0151675
0.00779712
0.00389572
0.00189916
0.000906244
0.000424298
0.000195248
8.84196e-05
3.94446e-05
1.73484e-05
7.52784e-06
3.22471e-06
1.3645e-06
5.70627e-07
2.35966e-07
9.6534e-08
3.90896e-08
1.56758e-08
6.23005e-09
2.45667e-09
9.62944e-10
3.77345e-10
1.46333e-10
6.24167e-11
2.84241e-11
1.41511e-11
1.00465e-11
8.20817e-12
7.21456e-12
6.83885e-12
6.72917e-12
6.66248e-12
6.64498e-12
6.63485e-12
6.63193e-12
6.63071e-12
6.62995e-12
6.62974e-12
6.62965e-12
6.6296e-12
6.62959e-12
6.62958e-12
6.62957e-12
6.62957e-12
6.62957e-12
6.62956e-12
6.62956e-12
6.62956e-12
6.62956e-12
6.62956e-12
6.62956e-12
6.62955e-12
6.62955e-12
6.62955e-12
6.62955e-12
6.62955e-12
6.62954e-12
6.62954e-12
6.62954e-12
6.62954e-12
6.62954e-12
6.62954e-12
6.62954e-12
6.62954e-12
6.62953e-12
6.62953e-12
6.62953e-12
6.62953e-12
6.62953e-12
6.62953e-12
6.62953e-12
6.62953e-12
6.62953e-12
6.62953e-12
6.62952e-12
6.62952e-12
6.62952e-12
6.62952e-12
6.62952e-12
6.62952e-12
6.62952e-12
6.62952e-12
6.62952e-12
6.62952e-12
6.62951e-12
6.62951e-12
6.62951e-12
6.62951e-12
6.62951e-12
6.62951e-12
6.62951e-12
6.62951e-12
6.62951e-12
6.62951e-12
6.62951e-12
6.62951e-12
6.62951e-12
6.6295e-12
6.6295e-12
6.6295e-12
6.6295e-12
6.6295e-12
6.6295e-12
6.6295e-12
6.6295e-12
6.6295e-12
6.6295e-12
6.6295e-12
6.6295e-12
6.6295e-12
6.6295e-12
6.6295e-12
6.6295e-12
6.6295e-12
6.6295e-12
6.62949e-12
6.62949e-12
6.62949e-12
6.62949e-12
6.62949e-12
6.62949e-12
6.62949e-12
6.62949e-12
6.62949e-12
6.62949e-12
6.62949e-12
6.62949e-12
6.62949e-12
6.62949e-12
6.62949e-12
6.62949e-12
6.62948e-12
6.62948e-12
6.62948e-12
6.62948e-12
6.62948e-12
6.62948e-12
6.62948e-12
6.62948e-12
6.62948e-12
6.62948e-12
6.62948e-12
6.62948e-12
6.62948e-12
6.62948e-12
6.62948e-12
6.62948e-12
6.62947e-12
6.62947e-12
6.62947e-12
6.62947e-12
6.62947e-12
6.62947e-12
6.62947e-12
6.62947e-12
6.62947e-12
6.62947e-12
6.62947e-12
6.62947e-12
6.62946e-12
6.62946e-12
6.62946e-12
6.62946e-12
6.62946e-12
6.62946e-12
6.62946e-12
6.62946e-12
6.62946e-12
6.62946e-12
6.62946e-12
6.62945e-12
6.62945e-12
6.62945e-12
6.62945e-12
6.62945e-12
6.62945e-12
6.62945e-12
6.62945e-12
6.62945e-12
6.62945e-12
6.62945e-12
6.62945e-12
6.62944e-12
6.62944e-12
6.62944e-12
6.62944e-12
6.62944e-12
6.62944e-12
6.62944e-12
6.62944e-12
6.62944e-12
6.62944e-12
6.62943e-12
6.62943e-12
6.62943e-12
6.62943e-12
6.62943e-12
6.62943e-12
6.62943e-12
6.62943e-12
6.62943e-12
6.62943e-12
6.62942e-12
6.62942e-12
6.62942e-12
6.62942e-12
6.62942e-12
6.62942e-12
6.62942e-12
6.62942e-12
6.62942e-12
6.62942e-12
6.62941e-12
6.62941e-12
6.62941e-12
6.62941e-12
6.62941e-12
6.62941e-12
6.62941e-12
6.62941e-12
6.62941e-12
6.62941e-12
6.6294e-12
6.6294e-12
6.6294e-12
6.6294e-12
6.6294e-12
6.6294e-12
6.6294e-12
6.6294e-12
6.6294e-12
6.6294e-12
6.62939e-12
6.62939e-12
6.62939e-12
6.62939e-12
6.62939e-12
6.62939e-12
6.62939e-12
6.62939e-12
6.62939e-12
6.62938e-12
6.62938e-12
6.62938e-12
6.62938e-12
6.62938e-12
6.62938e-12
6.62938e-12
6.62938e-12
6.62938e-12
6.62938e-12
6.62938e-12
6.62938e-12
6.62938e-12
6.62937e-12
6.62937e-12
6.62937e-12
6.62937e-12
6.62937e-12
6.62937e-12
6.62937e-12
6.62937e-12
6.62937e-12
6.62937e-12
6.62937e-12
6.62936e-12
6.62936e-12
6.62936e-12
6.62936e-12
6.62936e-12
6.62936e-12
6.62936e-12
6.62936e-12
6.62936e-12
6.62936e-12
6.62936e-12
6.62936e-12
6.62936e-12
6.62935e-12
6.62935e-12
6.62935e-12
6.62935e-12
6.62935e-12
6.62935e-12
6.62935e-12
6.62935e-12
6.62935e-12
6.62935e-12
6.62935e-12
6.62935e-12
6.62935e-12
6.62935e-12
6.62935e-12
6.62935e-12
6.62935e-12
6.62935e-12
6.62935e-12
6.62935e-12
6.62934e-12
6.62934e-12
6.62934e-12
6.62934e-12
6.62934e-12
6.62934e-12
6.62934e-12
6.62934e-12
6.62934e-12
6.62934e-12
6.62934e-12
6.62934e-12
6.62934e-12
6.62934e-12
6.62934e-12
6.62934e-12
6.62934e-12
6.62934e-12
6.62934e-12
6.62934e-12
6.62934e-12
6.62934e-12
6.62934e-12
6.62934e-12
6.62934e-12
6.62934e-12
6.62934e-12
6.62934e-12
6.62934e-12
6.62934e-12
6.62934e-12
6.62934e-12
6.62934e-12
6.62934e-12
6.62934e-12
6.62934e-12
6.62934e-12
6.62934e-12
6.62934e-12
6.62934e-12
6.62933e-12
6.62933e-12
6.62933e-12
6.62933e-12
6.62933e-12
6.62933e-12
6.62933e-12
6.62933e-12
6.62933e-12
6.62933e-12
6.62934e-12
6.62934e-12
6.62934e-12
6.62934e-12
6.62934e-12
6.62934e-12
6.62934e-12
6.62934e-12
6.62934e-12
6.62934e-12
6.62934e-12
6.62934e-12
6.62934e-12
6.62934e-12
6.62934e-12
6.62934e-12
6.62934e-12
6.62934e-12
6.62934e-12
6.62934e-12
6.62934e-12
6.62934e-12
6.62934e-12
6.62934e-12
6.62934e-12
6.62934e-12
6.62934e-12
6.62934e-12
6.62934e-12
6.62934e-12
6.62934e-12
6.62934e-12
6.62934e-12
6.62934e-12
6.62934e-12
6.62934e-12
6.62934e-12
6.62934e-12
6.62934e-12
6.62934e-12
6.62935e-12
6.62935e-12
6.62935e-12
6.62935e-12
6.62935e-12
6.62935e-12
6.62935e-12
6.62935e-12
6.62935e-12
6.62935e-12
6.62935e-12
6.62935e-12
6.62935e-12
6.62935e-12
6.62935e-12
6.62935e-12
6.62935e-12
6.62935e-12
6.62935e-12
6.62936e-12
6.62936e-12
6.62936e-12
6.62936e-12
6.62936e-12
6.62936e-12
6.62936e-12
6.62936e-12
6.62936e-12
6.62936e-12
6.62936e-12
6.62936e-12
6.62936e-12
6.62936e-12
6.62936e-12
6.62936e-12
6.62937e-12
6.62937e-12
6.62937e-12
6.62937e-12
6.62937e-12
6.62937e-12
6.62937e-12
6.62937e-12
6.62937e-12
6.62937e-12
6.62937e-12
6.62937e-12
6.62937e-12
6.62937e-12
6.62938e-12
6.62938e-12
6.62938e-12
6.62938e-12
6.62938e-12
6.62938e-12
6.62938e-12
6.62938e-12
6.62938e-12
6.62938e-12
6.62938e-12
6.62938e-12
6.62938e-12
6.62939e-12
6.62939e-12
6.62939e-12
6.62939e-12
6.62939e-12
6.62939e-12
6.62939e-12
6.62939e-12
6.62939e-12
6.62939e-12
6.62939e-12
6.6294e-12
6.6294e-12
6.6294e-12
6.6294e-12
6.6294e-12
6.6294e-12
6.6294e-12
6.6294e-12
6.6294e-12
6.6294e-12
6.6294e-12
6.62941e-12
6.62941e-12
6.62941e-12
6.62941e-12
6.62941e-12
6.62941e-12
6.62941e-12
6.62941e-12
6.62941e-12
6.62941e-12
6.62942e-12
6.62942e-12
6.62942e-12
6.62942e-12
6.62942e-12
6.62942e-12
6.62942e-12
6.62942e-12
6.62942e-12
6.62942e-12
6.62942e-12
6.62943e-12
6.62943e-12
6.62943e-12
6.62943e-12
6.62943e-12
6.62943e-12
6.62943e-12
6.62943e-12
6.62943e-12
6.62944e-12
6.62944e-12
6.62944e-12
6.62944e-12
6.62944e-12
6.62944e-12
6.62944e-12
6.62944e-12
6.62944e-12
6.62945e-12
6.62945e-12
6.62945e-12
6.62945e-12
6.62945e-12
6.62945e-12
6.62945e-12
6.62945e-12
6.62946e-12
6.62946e-12
6.62946e-12
6.62946e-12
6.62946e-12
6.62946e-12
6.62946e-12
6.62946e-12
6.62946e-12
6.62947e-12
6.62947e-12
6.62947e-12
6.62947e-12
6.62947e-12
6.62947e-12
6.62947e-12
6.62947e-12
6.62947e-12
6.62948e-12
6.62948e-12
6.62948e-12
6.62948e-12
6.62948e-12
6.62948e-12
6.62948e-12
6.62949e-12
6.62949e-12
6.62949e-12
6.62949e-12
6.62949e-12
6.62949e-12
6.62949e-12
6.62949e-12
6.6295e-12
6.6295e-12
6.6295e-12
6.6295e-12
6.6295e-12
6.6295e-12
6.6295e-12
6.6295e-12
6.62951e-12
6.62951e-12
6.62951e-12
6.62951e-12
6.62951e-12
6.62951e-12
6.62951e-12
6.62952e-12
6.62952e-12
6.62952e-12
6.62952e-12
6.62952e-12
6.62952e-12
6.62952e-12
6.62953e-12
6.62953e-12
6.62953e-12
6.62953e-12
6.62953e-12
6.62953e-12
6.62953e-12
6.62954e-12
6.62954e-12
6.62954e-12
6.62954e-12
6.62954e-12
6.62954e-12
6.62954e-12
6.62955e-12
6.62955e-12
6.62955e-12
6.62955e-12
6.62955e-12
6.62955e-12
6.62956e-12
6.62956e-12
6.62956e-12
6.62956e-12
6.62956e-12
6.62956e-12
6.62956e-12
6.62957e-12
6.62957e-12
6.62957e-12
6.62957e-12
6.62957e-12
6.62957e-12
6.62957e-12
6.62958e-12
6.62958e-12
6.62958e-12
6.62958e-12
6.62958e-12
6.62958e-12
6.62959e-12
6.62959e-12
6.62959e-12
6.62959e-12
6.62959e-12
6.62959e-12
6.6296e-12
6.6296e-12
6.6296e-12
6.6296e-12
6.6296e-12
6.6296e-12
6.62961e-12
6.62961e-12
6.62961e-12
6.62961e-12
6.62961e-12
6.62961e-12
6.62962e-12
6.62962e-12
6.62962e-12
6.62962e-12
6.62962e-12
6.62962e-12
6.62963e-12
6.62963e-12
6.62963e-12
6.62963e-12
6.62963e-12
6.62964e-12
6.62964e-12
6.62964e-12
6.62964e-12
6.62964e-12
6.62964e-12
6.62965e-12
6.62965e-12
6.62965e-12
6.62965e-12
6.62965e-12
6.62966e-12
6.62966e-12
6.62966e-12
6.62966e-12
6.62966e-12
6.62967e-12
6.62967e-12
6.62967e-12
6.62967e-12
6.62967e-12
6.62967e-12
6.62968e-12
6.62968e-12
6.62968e-12
6.62968e-12
6.62968e-12
6.62969e-12
6.62969e-12
6.62969e-12
6.62969e-12
6.62969e-12
6.6297e-12
6.6297e-12
6.6297e-12
6.6297e-12
6.6297e-12
6.62971e-12
6.62971e-12
6.62971e-12
6.62971e-12
6.62971e-12
6.62972e-12
6.62972e-12
6.62972e-12
6.62972e-12
6.62972e-12
6.62973e-12
6.62973e-12
6.62973e-12
6.62973e-12
6.62974e-12
6.62974e-12
6.62974e-12
6.62974e-12
6.62974e-12
6.62975e-12
6.62975e-12
6.62975e-12
6.62975e-12
6.62976e-12
6.62976e-12
6.62976e-12
6.62976e-12
6.62976e-12
6.62977e-12
6.62977e-12
6.62977e-12
6.62977e-12
6.62978e-12
6.62978e-12
6.62978e-12
6.62978e-12
6.62978e-12
6.62979e-12
6.62979e-12
6.62979e-12
6.62979e-12
6.6298e-12
6.6298e-12
6.6298e-12
6.6298e-12
6.62981e-12
6.62981e-12
6.62981e-12
6.62981e-12
6.62981e-12
6.62982e-12
6.62982e-12
6.62982e-12
6.62983e-12
6.62983e-12
6.62983e-12
6.62983e-12
6.62983e-12
6.62984e-12
6.62984e-12
6.62984e-12
6.62984e-12
6.62985e-12
6.62985e-12
6.62985e-12
6.62985e-12
6.62986e-12
6.62986e-12
6.62986e-12
6.62986e-12
6.62987e-12
6.62987e-12
6.62987e-12
6.62987e-12
6.62988e-12
6.62988e-12
6.62988e-12
6.62988e-12
6.62989e-12
6.62989e-12
6.62989e-12
6.6299e-12
6.6299e-12
6.6299e-12
6.6299e-12
6.62991e-12
6.62991e-12
6.62991e-12
6.62991e-12
6.62992e-12
6.62992e-12
6.62992e-12
6.62992e-12
6.62993e-12
6.62993e-12
6.62993e-12
6.62994e-12
6.62994e-12
6.62994e-12
6.62994e-12
6.62995e-12
6.62995e-12
6.62995e-12
6.62995e-12
6.62996e-12
6.62996e-12
6.62996e-12
6.62996e-12
6.62997e-12
6.62997e-12
6.62997e-12
6.62998e-12
6.62998e-12
6.62998e-12
6.62999e-12
6.62999e-12
6.62999e-12
6.62999e-12
6.63e-12
6.63e-12
6.63e-12
6.63e-12
6.63001e-12
6.63001e-12
6.63001e-12
6.63002e-12
6.63002e-12
6.63002e-12
6.63003e-12
6.63003e-12
6.63003e-12
6.63003e-12
6.63004e-12
6.63004e-12
6.63004e-12
6.63005e-12
6.63005e-12
6.63005e-12
6.63005e-12
6.63006e-12
6.63006e-12
6.63006e-12
6.63007e-12
6.63007e-12
6.63007e-12
6.63008e-12
6.63008e-12
6.63008e-12
6.63008e-12
6.63009e-12
6.63009e-12
6.63009e-12
6.6301e-12
6.6301e-12
6.6301e-12
6.63011e-12
6.63011e-12
6.63011e-12
6.63011e-12
6.63012e-12
6.63012e-12
6.63012e-12
6.63013e-12
6.63013e-12
6.63013e-12
6.63014e-12
6.63014e-12
6.63014e-12
6.63015e-12
6.63015e-12
6.63015e-12
6.63016e-12
6.63016e-12
6.63016e-12
6.63016e-12
6.63017e-12
6.63017e-12
6.63018e-12
6.63018e-12
6.63018e-12
6.63018e-12
6.63019e-12
6.63019e-12
6.63019e-12
6.6302e-12
6.6302e-12
6.6302e-12
6.63021e-12
6.63021e-12
6.63021e-12
6.63022e-12
6.63022e-12
6.63022e-12
6.63023e-12
6.63023e-12
6.63023e-12
6.63024e-12
6.63024e-12
6.63024e-12
6.63024e-12
6.63025e-12
6.63025e-12
6.63025e-12
6.63026e-12
6.63026e-12
6.63026e-12
6.63027e-12
6.63027e-12
6.63027e-12
6.63028e-12
6.63028e-12
6.63028e-12
6.63029e-12
6.63029e-12
6.63029e-12
6.6303e-12
6.6303e-12
6.6303e-12
6.63031e-12
6.63031e-12
6.63031e-12
6.63032e-12
6.63032e-12
6.63032e-12
6.63033e-12
6.63033e-12
6.63033e-12
6.63034e-12
6.63034e-12
6.63034e-12
6.63035e-12
6.63035e-12
6.63035e-12
6.63035e-12
6.63036e-12
6.63036e-12
6.63036e-12
6.63037e-12
6.63037e-12
6.63037e-12
6.63038e-12
6.63038e-12
6.63038e-12
6.63039e-12
6.63039e-12
6.63039e-12
6.6304e-12
6.6304e-12
6.6304e-12
6.63041e-12
6.63041e-12
6.63041e-12
6.63042e-12
6.63042e-12
6.63042e-12
6.63043e-12
6.63043e-12
6.63043e-12
6.63044e-12
6.63044e-12
6.63044e-12
6.63045e-12
6.63045e-12
6.63045e-12
6.63046e-12
6.63046e-12
6.63046e-12
6.63047e-12
6.63047e-12
6.63047e-12
6.63048e-12
6.63048e-12
6.63048e-12
6.63049e-12
6.63049e-12
6.63048e-12
6.63047e-12
6.63039e-12
6.6301e-12
6.62918e-12
6.62649e-12
6.6191e-12
6.59979e-12
)
;

boundaryField
{
    fixedWall
    {
        type            zeroGradient;
    }
    outlet
    {
        type            inletOutlet;
        inletValue      uniform 0;
        value           uniform 6.59979e-12;
    }
    defaultFaces
    {
        type            empty;
    }
}


// ************************************************************************* //
