/*--------------------------------*- C++ -*----------------------------------*\
| =========                 |                                                 |
| \\      /  F ield         | OpenFOAM: The Open Source CFD Toolbox           |
|  \\    /   O peration     | Version:  2406                                  |
|   \\  /    A nd           | Website:  www.openfoam.com                      |
|    \\/     M anipulation  |                                                 |
\*---------------------------------------------------------------------------*/
FoamFile
{
    version     2.0;
    format      ascii;
    arch        "LSB;label=32;scalar=64";
    class       volScalarField;
    location    "8.2";
    object      O2;
}
// * * * * * * * * * * * * * * * * * * * * * * * * * * * * * * * * * * * * * //

dimensions      [0 0 0 0 0 0 0];

internalField   nonuniform List<scalar> 
1000
(
1.2474e-06
1.24502e-06
1.24074e-06
1.23489e-06
1.22771e-06
1.21939e-06
1.21007e-06
1.19987e-06
1.1889e-06
1.17723e-06
1.16494e-06
1.15209e-06
1.13875e-06
1.12495e-06
1.11075e-06
1.09619e-06
1.0813e-06
1.06612e-06
1.05068e-06
1.03502e-06
1.01916e-06
1.00313e-06
9.86959e-07
9.70667e-07
9.5428e-07
9.37822e-07
9.21315e-07
9.04782e-07
8.88243e-07
8.71721e-07
8.55236e-07
8.38807e-07
8.22454e-07
8.06197e-07
7.90054e-07
7.74043e-07
7.58181e-07
7.42485e-07
7.2697e-07
7.11653e-07
6.96547e-07
6.81665e-07
6.67021e-07
6.52626e-07
6.38491e-07
6.24625e-07
6.11037e-07
5.97736e-07
5.84727e-07
5.72017e-07
5.59611e-07
5.47513e-07
5.35726e-07
5.24251e-07
5.13091e-07
5.02246e-07
4.91716e-07
4.815e-07
4.71597e-07
4.62003e-07
4.52717e-07
4.43736e-07
4.35055e-07
4.2667e-07
4.18576e-07
4.1077e-07
4.03244e-07
3.95995e-07
3.89015e-07
3.823e-07
3.75842e-07
3.69636e-07
3.63675e-07
3.57953e-07
3.52463e-07
3.47198e-07
3.42153e-07
3.37319e-07
3.32692e-07
3.28264e-07
3.24029e-07
3.19981e-07
3.16113e-07
3.1242e-07
3.08894e-07
3.05531e-07
3.02324e-07
2.99268e-07
2.96357e-07
2.93585e-07
2.90948e-07
2.8844e-07
2.86056e-07
2.83792e-07
2.81642e-07
2.79601e-07
2.77666e-07
2.75833e-07
2.74096e-07
2.72452e-07
2.70897e-07
2.69427e-07
2.68039e-07
2.66728e-07
2.65493e-07
2.64328e-07
2.63232e-07
2.62201e-07
2.61233e-07
2.60323e-07
2.59471e-07
2.58672e-07
2.57926e-07
2.57228e-07
2.56578e-07
2.55972e-07
2.5541e-07
2.54887e-07
2.54404e-07
2.53958e-07
2.53546e-07
2.53169e-07
2.52823e-07
2.52507e-07
2.5222e-07
2.5196e-07
2.51727e-07
2.51518e-07
2.51333e-07
2.5117e-07
2.51029e-07
2.50907e-07
2.50805e-07
2.50721e-07
2.50654e-07
2.50604e-07
2.50569e-07
2.50549e-07
2.50542e-07
2.50549e-07
2.50568e-07
2.506e-07
2.50642e-07
2.50695e-07
2.50759e-07
2.50832e-07
2.50914e-07
2.51004e-07
2.51103e-07
2.51209e-07
2.51323e-07
2.51444e-07
2.51571e-07
2.51704e-07
2.51843e-07
2.51988e-07
2.52138e-07
2.52293e-07
2.52452e-07
2.52616e-07
2.52785e-07
2.52957e-07
2.53133e-07
2.53312e-07
2.53495e-07
2.53681e-07
2.5387e-07
2.54062e-07
2.54257e-07
2.54454e-07
2.54654e-07
2.54856e-07
2.5506e-07
2.55267e-07
2.55475e-07
2.55685e-07
2.55897e-07
2.56111e-07
2.56326e-07
2.56543e-07
2.56761e-07
2.56981e-07
2.57202e-07
2.57424e-07
2.57648e-07
2.57873e-07
2.58098e-07
2.58325e-07
2.58553e-07
2.58782e-07
2.59012e-07
2.59243e-07
2.59474e-07
2.59707e-07
2.5994e-07
2.60174e-07
2.60409e-07
2.60645e-07
2.60881e-07
2.61118e-07
2.61356e-07
2.61594e-07
2.61833e-07
2.62073e-07
2.62313e-07
2.62554e-07
2.62795e-07
2.63037e-07
2.6328e-07
2.63522e-07
2.63764e-07
2.64009e-07
2.64254e-07
2.64499e-07
2.64745e-07
2.64991e-07
2.65238e-07
2.65485e-07
2.65733e-07
2.65981e-07
2.6623e-07
2.66479e-07
2.66729e-07
2.66979e-07
2.67229e-07
2.6748e-07
2.67732e-07
2.67983e-07
2.68236e-07
2.68488e-07
2.68742e-07
2.68995e-07
2.69249e-07
2.69504e-07
2.69759e-07
2.70014e-07
2.7027e-07
2.70526e-07
2.70782e-07
2.71039e-07
2.71297e-07
2.71555e-07
2.71813e-07
2.72072e-07
2.72331e-07
2.72591e-07
2.72851e-07
2.73111e-07
2.73372e-07
2.73633e-07
2.73895e-07
2.74157e-07
2.74419e-07
2.74682e-07
2.74946e-07
2.7521e-07
2.75474e-07
2.75739e-07
2.76004e-07
2.76269e-07
2.76535e-07
2.76801e-07
2.77068e-07
2.77335e-07
2.77603e-07
2.77871e-07
2.7814e-07
2.78409e-07
2.78678e-07
2.78948e-07
2.79218e-07
2.79489e-07
2.7976e-07
2.80032e-07
2.80304e-07
2.80576e-07
2.80849e-07
2.81122e-07
2.81396e-07
2.81671e-07
2.81945e-07
2.8222e-07
2.82496e-07
2.82772e-07
2.83049e-07
2.83326e-07
2.83603e-07
2.83881e-07
2.8416e-07
2.84438e-07
2.84718e-07
2.84998e-07
2.85278e-07
2.85559e-07
2.8584e-07
2.86121e-07
2.86404e-07
2.86686e-07
2.86969e-07
2.8725e-07
2.87535e-07
2.87819e-07
2.88104e-07
2.8839e-07
2.88676e-07
2.88963e-07
2.8925e-07
2.89538e-07
2.89826e-07
2.90114e-07
2.90404e-07
2.90693e-07
2.90983e-07
2.91274e-07
2.91565e-07
2.91857e-07
2.92149e-07
2.92442e-07
2.92736e-07
2.93029e-07
2.93324e-07
2.93619e-07
2.93914e-07
2.9421e-07
2.94507e-07
2.94804e-07
2.95102e-07
2.954e-07
2.95699e-07
2.95998e-07
2.96298e-07
2.96599e-07
2.969e-07
2.97201e-07
2.97504e-07
2.97806e-07
2.9811e-07
2.98414e-07
2.98718e-07
2.99024e-07
2.99329e-07
2.99636e-07
2.99943e-07
3.0025e-07
3.00559e-07
3.00867e-07
3.01177e-07
3.01487e-07
3.01798e-07
3.02109e-07
3.02421e-07
3.02734e-07
3.03047e-07
3.03361e-07
3.03675e-07
3.03991e-07
3.04306e-07
3.04623e-07
3.0494e-07
3.05258e-07
3.05577e-07
3.05896e-07
3.06216e-07
3.06536e-07
3.06858e-07
3.0718e-07
3.07502e-07
3.07826e-07
3.0815e-07
3.08475e-07
3.088e-07
3.09126e-07
3.09453e-07
3.09781e-07
3.10109e-07
3.10439e-07
3.10768e-07
3.11099e-07
3.1143e-07
3.11762e-07
3.12095e-07
3.12429e-07
3.12763e-07
3.13098e-07
3.13434e-07
3.13771e-07
3.14108e-07
3.14446e-07
3.14785e-07
3.15124e-07
3.15465e-07
3.15806e-07
3.16148e-07
3.16491e-07
3.16834e-07
3.17178e-07
3.17523e-07
3.17869e-07
3.18216e-07
3.18563e-07
3.18911e-07
3.1926e-07
3.1961e-07
3.19961e-07
3.20312e-07
3.20664e-07
3.21017e-07
3.21371e-07
3.21725e-07
3.2208e-07
3.22436e-07
3.22793e-07
3.23151e-07
3.23509e-07
3.23869e-07
3.24229e-07
3.2459e-07
3.24951e-07
3.25314e-07
3.25677e-07
3.26041e-07
3.26406e-07
3.26771e-07
3.27138e-07
3.27505e-07
3.27873e-07
3.28242e-07
3.28611e-07
3.28982e-07
3.29353e-07
3.29725e-07
3.30098e-07
3.30472e-07
3.30847e-07
3.31222e-07
3.31598e-07
3.31976e-07
3.32353e-07
3.32732e-07
3.33112e-07
3.33492e-07
3.33874e-07
3.34256e-07
3.34639e-07
3.35023e-07
3.35408e-07
3.35793e-07
3.3618e-07
3.36567e-07
3.36955e-07
3.37345e-07
3.37735e-07
3.38125e-07
3.38517e-07
3.3891e-07
3.39304e-07
3.39698e-07
3.40093e-07
3.4049e-07
3.40887e-07
3.41285e-07
3.41684e-07
3.42084e-07
3.42485e-07
3.42886e-07
3.43289e-07
3.43693e-07
3.44097e-07
3.44503e-07
3.44909e-07
3.45317e-07
3.45725e-07
3.46135e-07
3.46545e-07
3.46956e-07
3.47369e-07
3.47782e-07
3.48196e-07
3.48611e-07
3.49028e-07
3.49445e-07
3.49863e-07
3.50282e-07
3.50703e-07
3.51124e-07
3.51546e-07
3.51969e-07
3.52394e-07
3.52819e-07
3.53246e-07
3.53673e-07
3.54102e-07
3.54531e-07
3.54962e-07
3.55393e-07
3.55826e-07
3.5626e-07
3.56695e-07
3.57131e-07
3.57568e-07
3.58006e-07
3.58445e-07
3.58885e-07
3.59327e-07
3.59769e-07
3.60213e-07
3.60658e-07
3.61103e-07
3.6155e-07
3.61998e-07
3.62446e-07
3.62893e-07
3.63345e-07
3.63797e-07
3.64251e-07
3.64706e-07
3.65162e-07
3.6562e-07
3.66078e-07
3.66538e-07
3.66998e-07
3.6746e-07
3.67923e-07
3.68388e-07
3.68853e-07
3.6932e-07
3.69788e-07
3.70257e-07
3.70727e-07
3.71199e-07
3.71671e-07
3.72145e-07
3.7262e-07
3.73097e-07
3.73574e-07
3.74053e-07
3.74533e-07
3.75015e-07
3.75497e-07
3.75981e-07
3.76466e-07
3.76952e-07
3.7744e-07
3.77929e-07
3.78419e-07
3.7891e-07
3.79403e-07
3.79897e-07
3.80392e-07
3.80888e-07
3.81386e-07
3.81885e-07
3.82385e-07
3.82887e-07
3.8339e-07
3.83892e-07
3.84394e-07
3.84901e-07
3.85409e-07
3.85919e-07
3.86429e-07
3.86941e-07
3.87454e-07
3.87969e-07
3.88485e-07
3.89002e-07
3.89521e-07
3.90041e-07
3.90562e-07
3.91085e-07
3.91609e-07
3.92134e-07
3.92661e-07
3.93189e-07
3.93718e-07
3.94249e-07
3.94782e-07
3.95315e-07
3.95851e-07
3.96387e-07
3.96925e-07
3.97465e-07
3.98005e-07
3.98548e-07
3.99091e-07
3.99637e-07
4.00183e-07
4.00731e-07
4.01281e-07
4.01832e-07
4.02385e-07
4.02939e-07
4.03494e-07
4.04051e-07
4.0461e-07
4.0517e-07
4.05732e-07
4.06295e-07
4.0686e-07
4.07427e-07
4.07995e-07
4.08564e-07
4.09135e-07
4.09708e-07
4.10283e-07
4.10859e-07
4.11436e-07
4.12016e-07
4.12597e-07
4.13179e-07
4.13763e-07
4.14349e-07
4.14937e-07
4.15526e-07
4.16117e-07
4.1671e-07
4.17304e-07
4.17901e-07
4.18499e-07
4.19098e-07
4.197e-07
4.20303e-07
4.20908e-07
4.21514e-07
4.22123e-07
4.22733e-07
4.23345e-07
4.23959e-07
4.24573e-07
4.25187e-07
4.25806e-07
4.26427e-07
4.2705e-07
4.27675e-07
4.28302e-07
4.28931e-07
4.29561e-07
4.30194e-07
4.30828e-07
4.31464e-07
4.32103e-07
4.32743e-07
4.33385e-07
4.34029e-07
4.34674e-07
4.35322e-07
4.35972e-07
4.36624e-07
4.37278e-07
4.37933e-07
4.38591e-07
4.39251e-07
4.39913e-07
4.40577e-07
4.41243e-07
4.4191e-07
4.4258e-07
4.43252e-07
4.43927e-07
4.44603e-07
4.45281e-07
4.45961e-07
4.46644e-07
4.47329e-07
4.48015e-07
4.48704e-07
4.49395e-07
4.50088e-07
4.50784e-07
4.51481e-07
4.52181e-07
4.52883e-07
4.53587e-07
4.54293e-07
4.55002e-07
4.55712e-07
4.56425e-07
4.57141e-07
4.57858e-07
4.58578e-07
4.593e-07
4.60024e-07
4.6075e-07
4.61479e-07
4.6221e-07
4.62943e-07
4.63679e-07
4.64416e-07
4.65157e-07
4.65899e-07
4.66644e-07
4.67391e-07
4.6814e-07
4.68892e-07
4.69646e-07
4.70397e-07
4.71155e-07
4.71916e-07
4.72679e-07
4.73444e-07
4.74212e-07
4.74982e-07
4.75755e-07
4.7653e-07
4.77308e-07
4.78087e-07
4.7887e-07
4.79655e-07
4.80442e-07
4.81231e-07
4.82023e-07
4.82818e-07
4.83615e-07
4.84415e-07
4.85217e-07
4.86021e-07
4.86829e-07
4.87638e-07
4.8845e-07
4.89265e-07
4.90083e-07
4.90903e-07
4.91726e-07
4.92551e-07
4.93379e-07
4.9421e-07
4.95043e-07
4.95879e-07
4.96718e-07
4.9756e-07
4.98405e-07
4.99252e-07
5.00102e-07
5.00955e-07
5.01811e-07
5.0267e-07
5.03532e-07
5.04397e-07
5.05265e-07
5.06136e-07
5.0701e-07
5.07887e-07
5.08767e-07
5.09651e-07
5.10537e-07
5.11427e-07
5.1232e-07
5.13216e-07
5.14115e-07
5.15018e-07
5.15924e-07
5.16833e-07
5.17746e-07
5.18662e-07
5.19582e-07
5.20505e-07
5.21432e-07
5.22362e-07
5.23292e-07
5.24223e-07
5.25164e-07
5.26108e-07
5.27056e-07
5.28008e-07
5.28963e-07
5.29921e-07
5.30884e-07
5.3185e-07
5.3282e-07
5.33793e-07
5.34771e-07
5.35752e-07
5.36737e-07
5.37725e-07
5.38718e-07
5.39714e-07
5.40715e-07
5.41719e-07
5.42727e-07
5.43739e-07
5.44754e-07
5.45774e-07
5.46798e-07
5.47825e-07
5.48857e-07
5.49892e-07
5.50932e-07
5.51975e-07
5.53022e-07
5.54074e-07
5.55129e-07
5.56188e-07
5.57251e-07
5.58319e-07
5.5939e-07
5.60466e-07
5.61545e-07
5.62628e-07
5.63716e-07
5.64808e-07
5.65903e-07
5.67003e-07
5.68107e-07
5.69215e-07
5.70328e-07
5.71444e-07
5.72565e-07
5.73689e-07
5.74818e-07
5.75951e-07
5.77089e-07
5.7823e-07
5.79376e-07
5.80527e-07
5.81681e-07
5.8284e-07
5.84003e-07
5.85171e-07
5.86343e-07
5.8752e-07
5.88701e-07
5.89886e-07
5.91076e-07
5.92271e-07
5.9347e-07
5.94674e-07
5.95883e-07
5.97096e-07
5.98314e-07
5.99535e-07
6.00756e-07
6.01989e-07
6.03228e-07
6.04471e-07
6.0572e-07
6.06973e-07
6.08232e-07
6.09496e-07
6.10766e-07
6.12039e-07
6.13311e-07
6.14596e-07
6.15885e-07
6.17181e-07
6.18481e-07
6.19787e-07
6.21099e-07
6.22417e-07
6.23734e-07
6.25055e-07
6.26388e-07
6.27728e-07
6.29072e-07
6.30423e-07
6.31779e-07
6.33141e-07
6.3451e-07
6.35884e-07
6.37265e-07
6.38652e-07
6.40045e-07
6.41444e-07
6.4285e-07
6.44263e-07
6.45682e-07
6.47108e-07
6.48541e-07
6.49981e-07
6.51428e-07
6.52882e-07
6.54344e-07
6.55813e-07
6.5729e-07
6.58775e-07
6.60268e-07
6.61769e-07
6.6328e-07
6.64799e-07
6.66328e-07
6.67866e-07
6.69415e-07
6.70974e-07
6.72545e-07
6.74128e-07
6.75723e-07
6.77332e-07
6.78955e-07
6.80593e-07
6.82248e-07
6.83921e-07
6.85612e-07
6.87324e-07
6.89058e-07
6.90817e-07
6.92602e-07
6.94415e-07
6.9626e-07
6.98139e-07
7.00055e-07
7.02013e-07
7.04016e-07
7.06068e-07
7.08175e-07
7.10341e-07
7.12574e-07
7.14879e-07
7.17263e-07
7.19735e-07
7.22304e-07
7.24978e-07
7.27769e-07
7.30688e-07
7.33748e-07
7.36963e-07
7.40347e-07
7.43917e-07
7.47692e-07
7.5169e-07
7.55932e-07
7.60442e-07
7.65245e-07
7.70367e-07
7.75838e-07
7.81688e-07
7.87952e-07
7.94666e-07
8.01869e-07
8.09602e-07
8.17911e-07
8.26843e-07
8.3645e-07
8.46785e-07
8.57905e-07
8.69873e-07
8.82752e-07
8.9661e-07
9.11519e-07
9.27552e-07
9.44789e-07
9.6331e-07
9.83199e-07
1.00454e-06
1.02743e-06
1.05195e-06
1.0782e-06
1.10626e-06
1.13623e-06
1.1682e-06
1.20225e-06
1.23847e-06
1.27692e-06
1.31769e-06
1.36083e-06
1.40637e-06
1.45435e-06
1.50478e-06
1.55765e-06
1.61291e-06
1.67049e-06
1.7303e-06
1.79217e-06
1.85593e-06
1.92133e-06
1.98809e-06
2.05585e-06
2.12421e-06
2.19269e-06
2.26075e-06
2.32778e-06
2.39312e-06
2.45602e-06
2.5157e-06
2.57131e-06
2.62197e-06
2.66675e-06
2.70472e-06
2.73492e-06
2.75642e-06
2.7682e-06
2.76954e-06
2.7596e-06
2.73758e-06
2.70279e-06
2.65462e-06
2.59257e-06
2.51622e-06
2.4253e-06
2.31962e-06
2.19916e-06
2.06401e-06
1.91446e-06
1.75096e-06
1.5742e-06
1.38515e-06
1.18509e-06
9.75715e-07
7.59282e-07
5.38732e-07
3.17943e-07
1.0204e-07
)
;

boundaryField
{
    fixedWall
    {
        type            zeroGradient;
    }
    outlet
    {
        type            inletOutlet;
        inletValue      uniform 0;
        value           uniform 0;
    }
    defaultFaces
    {
        type            empty;
    }
}


// ************************************************************************* //
