/*--------------------------------*- C++ -*----------------------------------*\
| =========                 |                                                 |
| \\      /  F ield         | OpenFOAM: The Open Source CFD Toolbox           |
|  \\    /   O peration     | Version:  2406                                  |
|   \\  /    A nd           | Website:  www.openfoam.com                      |
|    \\/     M anipulation  |                                                 |
\*---------------------------------------------------------------------------*/
FoamFile
{
    version     2.0;
    format      ascii;
    arch        "LSB;label=32;scalar=64";
    class       volScalarField;
    location    "9.5";
    object      T;
}
// * * * * * * * * * * * * * * * * * * * * * * * * * * * * * * * * * * * * * //

dimensions      [0 0 0 1 0 0 0];

internalField   nonuniform List<scalar> 
1000
(
306.219
330.508
352.937
373.813
393.362
411.759
429.144
445.628
461.303
476.247
490.525
504.191
517.295
529.878
541.976
553.621
564.844
575.667
586.116
596.21
605.969
615.408
624.544
633.391
641.961
650.268
658.322
666.133
673.71
681.064
688.202
695.132
701.861
708.397
714.745
720.913
726.905
732.728
738.386
743.885
749.229
754.424
759.472
764.379
769.149
773.784
778.29
782.67
786.926
791.062
795.082
798.989
802.785
806.473
810.057
813.538
816.92
820.205
823.396
826.494
829.503
832.424
835.261
838.014
840.686
843.279
845.795
848.236
850.604
852.901
855.129
857.289
859.383
861.413
863.381
865.287
867.135
868.924
870.657
872.336
873.961
875.535
877.057
878.531
879.957
881.336
882.67
883.96
885.207
886.413
887.578
888.704
889.791
890.842
891.856
892.835
893.781
894.693
895.573
896.422
897.241
898.031
898.792
899.526
900.233
900.914
901.57
902.201
902.81
903.395
903.958
904.5
905.022
905.523
906.005
906.468
906.913
907.341
907.752
908.146
908.525
908.888
909.237
909.572
909.893
910.2
910.495
910.778
911.049
911.308
911.557
911.795
912.022
912.24
912.449
912.648
912.839
913.021
913.195
913.362
913.52
913.672
913.817
913.955
914.087
914.213
914.333
914.448
914.557
914.66
914.759
914.853
914.943
915.028
915.109
915.186
915.26
915.33
915.396
915.46
915.519
915.576
915.63
915.682
915.73
915.776
915.82
915.861
915.901
915.938
915.973
916.006
916.038
916.067
916.096
916.122
916.147
916.171
916.193
916.214
916.234
916.253
916.271
916.287
916.303
916.318
916.331
916.344
916.357
916.368
916.379
916.389
916.398
916.407
916.415
916.423
916.43
916.437
916.443
916.449
916.455
916.46
916.464
916.469
916.473
916.476
916.48
916.483
916.486
916.489
916.491
916.493
916.495
916.497
916.499
916.5
916.502
916.503
916.504
916.505
916.506
916.507
916.507
916.508
916.508
916.508
916.509
916.509
916.509
916.509
916.509
916.509
916.509
916.509
916.509
916.509
916.508
916.508
916.508
916.508
916.507
916.507
916.506
916.506
916.506
916.505
916.505
916.504
916.504
916.503
916.503
916.502
916.502
916.502
916.501
916.501
916.5
916.5
916.499
916.499
916.498
916.498
916.497
916.497
916.497
916.496
916.496
916.495
916.495
916.495
916.494
916.494
916.493
916.493
916.493
916.492
916.492
916.492
916.492
916.491
916.491
916.491
916.491
916.49
916.49
916.49
916.49
916.49
916.49
916.489
916.489
916.489
916.489
916.489
916.489
916.489
916.489
916.489
916.489
916.489
916.489
916.489
916.489
916.489
916.489
916.489
916.489
916.489
916.489
916.489
916.489
916.489
916.49
916.49
916.49
916.49
916.49
916.49
916.49
916.491
916.491
916.491
916.491
916.492
916.492
916.492
916.492
916.492
916.493
916.493
916.493
916.493
916.494
916.494
916.494
916.495
916.495
916.495
916.495
916.496
916.496
916.496
916.497
916.497
916.497
916.498
916.498
916.498
916.498
916.499
916.499
916.499
916.5
916.5
916.5
916.501
916.501
916.501
916.501
916.502
916.502
916.502
916.503
916.503
916.503
916.503
916.504
916.504
916.504
916.504
916.505
916.505
916.505
916.505
916.506
916.506
916.506
916.506
916.507
916.507
916.507
916.507
916.507
916.508
916.508
916.508
916.508
916.508
916.509
916.509
916.509
916.509
916.509
916.509
916.509
916.51
916.51
916.51
916.51
916.51
916.51
916.51
916.51
916.511
916.511
916.511
916.511
916.511
916.511
916.511
916.511
916.511
916.511
916.511
916.512
916.512
916.512
916.512
916.512
916.512
916.512
916.512
916.512
916.512
916.512
916.512
916.512
916.512
916.512
916.512
916.512
916.512
916.512
916.512
916.512
916.513
916.513
916.513
916.513
916.513
916.513
916.513
916.513
916.513
916.513
916.513
916.513
916.513
916.513
916.513
916.513
916.513
916.513
916.513
916.513
916.513
916.513
916.513
916.513
916.513
916.513
916.514
916.514
916.514
916.514
916.514
916.514
916.514
916.514
916.514
916.514
916.514
916.514
916.514
916.514
916.514
916.514
916.514
916.514
916.514
916.514
916.514
916.514
916.514
916.514
916.514
916.515
916.515
916.515
916.515
916.515
916.515
916.515
916.515
916.515
916.515
916.515
916.515
916.515
916.515
916.515
916.515
916.515
916.515
916.515
916.515
916.515
916.515
916.515
916.515
916.515
916.515
916.515
916.515
916.515
916.515
916.515
916.515
916.515
916.515
916.515
916.515
916.515
916.515
916.515
916.515
916.515
916.515
916.515
916.515
916.515
916.515
916.515
916.515
916.515
916.515
916.515
916.515
916.515
916.515
916.515
916.515
916.515
916.515
916.515
916.515
916.515
916.515
916.515
916.515
916.515
916.515
916.515
916.515
916.515
916.515
916.515
916.515
916.515
916.515
916.515
916.515
916.515
916.515
916.515
916.516
916.516
916.516
916.516
916.516
916.516
916.516
916.516
916.516
916.516
916.516
916.516
916.516
916.516
916.516
916.516
916.516
916.516
916.517
916.517
916.517
916.517
916.517
916.517
916.517
916.517
916.517
916.517
916.517
916.517
916.517
916.517
916.518
916.518
916.518
916.518
916.518
916.518
916.518
916.518
916.518
916.518
916.518
916.518
916.518
916.518
916.518
916.518
916.518
916.518
916.518
916.518
916.519
916.519
916.519
916.519
916.519
916.519
916.519
916.519
916.519
916.519
916.519
916.519
916.519
916.519
916.519
916.519
916.519
916.518
916.518
916.518
916.518
916.518
916.518
916.518
916.518
916.518
916.518
916.518
916.518
916.518
916.518
916.518
916.518
916.518
916.518
916.518
916.517
916.517
916.517
916.517
916.517
916.517
916.517
916.517
916.517
916.517
916.517
916.517
916.517
916.516
916.516
916.516
916.516
916.516
916.516
916.516
916.516
916.516
916.516
916.516
916.516
916.516
916.516
916.516
916.516
916.516
916.516
916.516
916.516
916.516
916.516
916.516
916.516
916.516
916.516
916.516
916.516
916.516
916.516
916.516
916.516
916.516
916.516
916.516
916.516
916.516
916.517
916.517
916.517
916.517
916.517
916.517
916.517
916.517
916.517
916.518
916.518
916.518
916.518
916.518
916.518
916.519
916.519
916.519
916.519
916.519
916.519
916.519
916.52
916.52
916.52
916.52
916.52
916.52
916.521
916.521
916.521
916.521
916.521
916.521
916.521
916.522
916.522
916.522
916.522
916.522
916.522
916.522
916.522
916.522
916.522
916.522
916.523
916.523
916.523
916.523
916.523
916.523
916.523
916.523
916.523
916.522
916.522
916.522
916.522
916.522
916.522
916.522
916.522
916.522
916.522
916.522
916.521
916.521
916.521
916.521
916.521
916.52
916.52
916.52
916.52
916.52
916.519
916.519
916.519
916.519
916.518
916.518
916.518
916.518
916.517
916.517
916.517
916.517
916.516
916.516
916.516
916.515
916.515
916.515
916.515
916.514
916.514
916.514
916.513
916.513
916.513
916.513
916.512
916.512
916.512
916.511
916.511
916.511
916.51
916.51
916.51
916.509
916.509
916.509
916.508
916.508
916.507
916.507
916.506
916.506
916.505
916.504
916.504
916.503
916.502
916.501
916.5
916.499
916.498
916.496
916.495
916.493
916.491
916.489
916.487
916.485
916.482
916.479
916.476
916.472
916.469
916.464
916.46
916.455
916.449
916.443
916.436
916.429
916.42
916.411
916.402
916.391
916.379
916.367
916.353
916.337
916.321
916.303
916.283
916.261
916.238
916.213
916.185
916.155
916.122
916.087
916.049
916.007
915.962
915.913
915.861
915.804
915.742
915.676
915.605
915.528
915.444
915.355
915.259
915.156
915.044
914.925
914.797
914.66
914.513
914.356
914.187
914.007
913.815
913.61
913.39
913.156
912.907
912.642
912.36
912.059
911.74
911.401
911.041
910.659
910.254
909.826
909.372
908.892
908.384
907.848
907.282
906.684
906.054
905.39
904.691
903.955
903.18
902.366
901.511
900.613
899.671
898.682
897.646
896.561
895.424
894.235
892.99
891.69
890.33
888.91
887.428
885.881
884.268
882.586
880.833
879.006
877.104
875.124
873.063
870.919
868.688
866.369
863.958
861.452
858.848
856.143
853.332
850.413
847.381
844.232
840.962
837.567
834.041
830.38
826.578
822.629
818.528
814.267
809.841
805.241
800.46
795.491
790.323
784.948
779.356
773.536
767.478
761.168
754.595
747.745
740.602
733.153
725.38
717.328
708.958
700.116
690.878
681.224
671.131
660.577
649.537
637.988
625.906
613.265
600.041
586.21
571.751
556.643
540.869
524.416
507.275
489.447
470.937
451.763
431.957
411.563
390.644
369.284
347.592
325.706
303.8
)
;

boundaryField
{
    fixedWall
    {
        type            fixedValue;
        value           uniform 293;
    }
    outlet
    {
        type            inletOutlet;
        inletValue      uniform 293;
        value           uniform 293;
    }
    defaultFaces
    {
        type            empty;
    }
}


// ************************************************************************* //
