/*--------------------------------*- C++ -*----------------------------------*\
| =========                 |                                                 |
| \\      /  F ield         | OpenFOAM: The Open Source CFD Toolbox           |
|  \\    /   O peration     | Version:  2406                                  |
|   \\  /    A nd           | Website:  www.openfoam.com                      |
|    \\/     M anipulation  |                                                 |
\*---------------------------------------------------------------------------*/
FoamFile
{
    version     2.0;
    format      ascii;
    arch        "LSB;label=32;scalar=64";
    class       volScalarField;
    location    "9";
    object      O2;
}
// * * * * * * * * * * * * * * * * * * * * * * * * * * * * * * * * * * * * * //

dimensions      [0 0 0 0 0 0 0];

internalField   nonuniform List<scalar> 
1000
(
1.20477e-06
1.20259e-06
1.19866e-06
1.19326e-06
1.18662e-06
1.17891e-06
1.17027e-06
1.16079e-06
1.15059e-06
1.13972e-06
1.12827e-06
1.11629e-06
1.10383e-06
1.09095e-06
1.07768e-06
1.06406e-06
1.05012e-06
1.03591e-06
1.02145e-06
1.00677e-06
9.91896e-07
9.76851e-07
9.61662e-07
9.46351e-07
9.30941e-07
9.15451e-07
8.99903e-07
8.84317e-07
8.68711e-07
8.53105e-07
8.37517e-07
8.21965e-07
8.06467e-07
7.91038e-07
7.75697e-07
7.60459e-07
7.45339e-07
7.30353e-07
7.15515e-07
7.00839e-07
6.86338e-07
6.72025e-07
6.57912e-07
6.44009e-07
6.30328e-07
6.16878e-07
6.03667e-07
5.90705e-07
5.77997e-07
5.6555e-07
5.5337e-07
5.41462e-07
5.29829e-07
5.18476e-07
5.07404e-07
4.96615e-07
4.86111e-07
4.75891e-07
4.65956e-07
4.56304e-07
4.46936e-07
4.37847e-07
4.29037e-07
4.20502e-07
4.1224e-07
4.04246e-07
3.96517e-07
3.89048e-07
3.81835e-07
3.74873e-07
3.68158e-07
3.61683e-07
3.55445e-07
3.49437e-07
3.43653e-07
3.38089e-07
3.32739e-07
3.27597e-07
3.22657e-07
3.17913e-07
3.1336e-07
3.08993e-07
3.04805e-07
3.00791e-07
2.96945e-07
2.93263e-07
2.89738e-07
2.86366e-07
2.83141e-07
2.80058e-07
2.77113e-07
2.74299e-07
2.71614e-07
2.69051e-07
2.66607e-07
2.64276e-07
2.62056e-07
2.59941e-07
2.57927e-07
2.56012e-07
2.54189e-07
2.52457e-07
2.50812e-07
2.49249e-07
2.47766e-07
2.46359e-07
2.45026e-07
2.43763e-07
2.42567e-07
2.41435e-07
2.40365e-07
2.39354e-07
2.384e-07
2.375e-07
2.36652e-07
2.35853e-07
2.35102e-07
2.34396e-07
2.33733e-07
2.33111e-07
2.32529e-07
2.31984e-07
2.31476e-07
2.31002e-07
2.30561e-07
2.30151e-07
2.2977e-07
2.29418e-07
2.29094e-07
2.28795e-07
2.28521e-07
2.2827e-07
2.28042e-07
2.27835e-07
2.27648e-07
2.2748e-07
2.27331e-07
2.272e-07
2.27085e-07
2.26985e-07
2.26901e-07
2.26832e-07
2.26776e-07
2.26733e-07
2.26702e-07
2.26683e-07
2.26675e-07
2.26677e-07
2.26689e-07
2.26711e-07
2.26742e-07
2.26782e-07
2.26829e-07
2.26885e-07
2.26948e-07
2.27017e-07
2.27094e-07
2.27176e-07
2.27265e-07
2.27359e-07
2.27459e-07
2.27563e-07
2.27673e-07
2.27787e-07
2.27905e-07
2.28028e-07
2.28154e-07
2.28284e-07
2.28417e-07
2.28554e-07
2.28694e-07
2.28837e-07
2.28983e-07
2.29131e-07
2.29282e-07
2.29436e-07
2.29592e-07
2.2975e-07
2.2991e-07
2.30072e-07
2.30235e-07
2.30401e-07
2.30568e-07
2.30737e-07
2.30907e-07
2.31079e-07
2.31252e-07
2.31427e-07
2.31603e-07
2.3178e-07
2.31958e-07
2.32137e-07
2.32317e-07
2.32498e-07
2.32681e-07
2.32864e-07
2.33048e-07
2.33232e-07
2.33418e-07
2.33604e-07
2.33791e-07
2.33979e-07
2.34167e-07
2.34356e-07
2.34546e-07
2.34736e-07
2.34927e-07
2.35119e-07
2.35311e-07
2.35503e-07
2.35696e-07
2.3589e-07
2.36084e-07
2.36278e-07
2.36473e-07
2.36669e-07
2.36864e-07
2.37061e-07
2.37257e-07
2.37455e-07
2.37652e-07
2.37849e-07
2.38046e-07
2.38245e-07
2.38444e-07
2.38644e-07
2.38844e-07
2.39044e-07
2.39244e-07
2.39445e-07
2.39646e-07
2.39848e-07
2.4005e-07
2.40252e-07
2.40454e-07
2.40657e-07
2.4086e-07
2.41064e-07
2.41267e-07
2.41472e-07
2.41676e-07
2.41881e-07
2.42085e-07
2.42291e-07
2.42496e-07
2.42702e-07
2.42908e-07
2.43115e-07
2.43322e-07
2.43529e-07
2.43736e-07
2.43944e-07
2.44151e-07
2.4436e-07
2.44568e-07
2.44777e-07
2.44986e-07
2.45196e-07
2.45405e-07
2.45615e-07
2.45826e-07
2.46036e-07
2.46247e-07
2.46458e-07
2.4667e-07
2.46881e-07
2.47094e-07
2.47306e-07
2.47519e-07
2.47731e-07
2.47945e-07
2.48158e-07
2.48372e-07
2.48586e-07
2.48801e-07
2.49015e-07
2.49231e-07
2.49446e-07
2.49662e-07
2.49877e-07
2.50094e-07
2.5031e-07
2.50527e-07
2.50744e-07
2.50962e-07
2.5118e-07
2.51398e-07
2.51616e-07
2.51835e-07
2.52054e-07
2.52273e-07
2.52493e-07
2.52713e-07
2.52933e-07
2.53154e-07
2.53375e-07
2.53596e-07
2.53818e-07
2.54039e-07
2.5426e-07
2.54483e-07
2.54706e-07
2.54929e-07
2.55153e-07
2.55377e-07
2.55601e-07
2.55826e-07
2.56051e-07
2.56276e-07
2.56502e-07
2.56728e-07
2.56954e-07
2.57181e-07
2.57408e-07
2.57635e-07
2.57863e-07
2.58091e-07
2.58319e-07
2.58548e-07
2.58777e-07
2.59007e-07
2.59237e-07
2.59467e-07
2.59698e-07
2.59929e-07
2.6016e-07
2.60392e-07
2.60624e-07
2.60857e-07
2.6109e-07
2.61323e-07
2.61557e-07
2.61791e-07
2.62026e-07
2.62261e-07
2.62496e-07
2.62732e-07
2.62968e-07
2.63204e-07
2.63441e-07
2.63678e-07
2.63916e-07
2.64154e-07
2.64393e-07
2.64632e-07
2.64871e-07
2.65111e-07
2.65351e-07
2.65592e-07
2.65833e-07
2.66075e-07
2.66317e-07
2.66559e-07
2.66802e-07
2.67045e-07
2.67289e-07
2.67533e-07
2.67778e-07
2.68023e-07
2.68269e-07
2.68515e-07
2.68761e-07
2.69008e-07
2.69256e-07
2.69504e-07
2.69752e-07
2.70001e-07
2.7025e-07
2.705e-07
2.7075e-07
2.71001e-07
2.71252e-07
2.71504e-07
2.71756e-07
2.72009e-07
2.72262e-07
2.72516e-07
2.7277e-07
2.73025e-07
2.7328e-07
2.73536e-07
2.73792e-07
2.74049e-07
2.74306e-07
2.74564e-07
2.74822e-07
2.75081e-07
2.7534e-07
2.756e-07
2.7586e-07
2.76121e-07
2.76382e-07
2.76644e-07
2.76906e-07
2.77169e-07
2.77432e-07
2.77696e-07
2.77961e-07
2.78226e-07
2.78491e-07
2.78757e-07
2.79023e-07
2.7929e-07
2.79558e-07
2.79826e-07
2.80095e-07
2.80364e-07
2.80633e-07
2.80904e-07
2.81174e-07
2.81446e-07
2.81717e-07
2.8199e-07
2.82262e-07
2.82536e-07
2.8281e-07
2.83084e-07
2.83359e-07
2.83634e-07
2.8391e-07
2.84187e-07
2.84464e-07
2.84742e-07
2.8502e-07
2.85299e-07
2.85578e-07
2.85858e-07
2.86138e-07
2.86419e-07
2.867e-07
2.86982e-07
2.87265e-07
2.87548e-07
2.87831e-07
2.88115e-07
2.884e-07
2.88685e-07
2.88971e-07
2.89257e-07
2.89544e-07
2.89832e-07
2.9012e-07
2.90408e-07
2.90697e-07
2.90987e-07
2.91277e-07
2.91568e-07
2.9186e-07
2.92152e-07
2.92444e-07
2.92737e-07
2.93031e-07
2.93325e-07
2.9362e-07
2.93916e-07
2.94212e-07
2.94508e-07
2.94806e-07
2.95103e-07
2.95402e-07
2.95701e-07
2.96e-07
2.96301e-07
2.96601e-07
2.96903e-07
2.97205e-07
2.97507e-07
2.97811e-07
2.98114e-07
2.98419e-07
2.98724e-07
2.9903e-07
2.99336e-07
2.99643e-07
2.99951e-07
3.00259e-07
3.00568e-07
3.00877e-07
3.01187e-07
3.01498e-07
3.01809e-07
3.02122e-07
3.02434e-07
3.02748e-07
3.03062e-07
3.03376e-07
3.03692e-07
3.04008e-07
3.04324e-07
3.04642e-07
3.0496e-07
3.05278e-07
3.05598e-07
3.05918e-07
3.06238e-07
3.0656e-07
3.06882e-07
3.07204e-07
3.07528e-07
3.07852e-07
3.08177e-07
3.08502e-07
3.08828e-07
3.09155e-07
3.09483e-07
3.09811e-07
3.1014e-07
3.1047e-07
3.108e-07
3.11132e-07
3.11463e-07
3.11796e-07
3.12129e-07
3.12461e-07
3.12795e-07
3.13131e-07
3.13467e-07
3.13804e-07
3.14142e-07
3.14481e-07
3.1482e-07
3.1516e-07
3.15501e-07
3.15842e-07
3.16184e-07
3.16527e-07
3.16871e-07
3.17215e-07
3.17561e-07
3.17907e-07
3.18253e-07
3.18601e-07
3.18949e-07
3.19298e-07
3.19648e-07
3.19998e-07
3.2035e-07
3.20702e-07
3.21055e-07
3.21409e-07
3.21763e-07
3.22118e-07
3.22474e-07
3.22831e-07
3.23189e-07
3.23547e-07
3.23905e-07
3.24262e-07
3.24623e-07
3.24985e-07
3.25347e-07
3.2571e-07
3.26074e-07
3.26438e-07
3.26804e-07
3.2717e-07
3.27537e-07
3.27905e-07
3.28273e-07
3.28643e-07
3.29013e-07
3.29384e-07
3.29756e-07
3.30128e-07
3.30502e-07
3.30876e-07
3.31251e-07
3.31627e-07
3.32004e-07
3.32382e-07
3.3276e-07
3.33139e-07
3.3352e-07
3.33901e-07
3.34283e-07
3.34665e-07
3.35049e-07
3.35433e-07
3.35819e-07
3.36205e-07
3.36592e-07
3.3698e-07
3.37369e-07
3.37758e-07
3.38149e-07
3.3854e-07
3.38933e-07
3.39326e-07
3.3972e-07
3.40115e-07
3.40511e-07
3.40908e-07
3.41306e-07
3.41705e-07
3.42104e-07
3.42505e-07
3.42907e-07
3.43309e-07
3.43713e-07
3.44117e-07
3.44522e-07
3.44929e-07
3.45336e-07
3.45744e-07
3.46153e-07
3.46563e-07
3.46975e-07
3.47387e-07
3.478e-07
3.48214e-07
3.48629e-07
3.49045e-07
3.49463e-07
3.49881e-07
3.503e-07
3.5072e-07
3.51141e-07
3.51564e-07
3.51987e-07
3.52411e-07
3.52837e-07
3.53263e-07
3.53691e-07
3.54119e-07
3.54549e-07
3.54979e-07
3.55408e-07
3.55841e-07
3.56275e-07
3.56709e-07
3.57145e-07
3.57583e-07
3.58021e-07
3.5846e-07
3.58901e-07
3.59342e-07
3.59785e-07
3.60229e-07
3.60674e-07
3.6112e-07
3.61567e-07
3.62015e-07
3.62465e-07
3.62915e-07
3.63367e-07
3.6382e-07
3.64274e-07
3.64729e-07
3.65186e-07
3.65643e-07
3.66102e-07
3.66562e-07
3.67023e-07
3.67485e-07
3.67949e-07
3.68413e-07
3.68879e-07
3.69346e-07
3.69814e-07
3.70284e-07
3.70754e-07
3.71226e-07
3.71699e-07
3.72173e-07
3.72649e-07
3.73126e-07
3.73603e-07
3.74083e-07
3.74563e-07
3.75045e-07
3.75527e-07
3.76012e-07
3.76497e-07
3.76983e-07
3.77471e-07
3.7796e-07
3.78451e-07
3.78942e-07
3.79435e-07
3.79929e-07
3.80425e-07
3.80921e-07
3.81419e-07
3.81918e-07
3.82419e-07
3.82921e-07
3.83424e-07
3.83928e-07
3.84434e-07
3.84938e-07
3.85443e-07
3.85952e-07
3.86463e-07
3.86975e-07
3.87488e-07
3.88003e-07
3.88519e-07
3.89036e-07
3.89554e-07
3.90074e-07
3.90595e-07
3.91117e-07
3.91641e-07
3.92166e-07
3.92692e-07
3.9322e-07
3.93749e-07
3.94279e-07
3.94811e-07
3.95344e-07
3.95878e-07
3.96414e-07
3.96951e-07
3.9749e-07
3.9803e-07
3.98572e-07
3.99114e-07
3.99659e-07
4.00204e-07
4.00752e-07
4.013e-07
4.0185e-07
4.02402e-07
4.02955e-07
4.03509e-07
4.04065e-07
4.04623e-07
4.05182e-07
4.05742e-07
4.06304e-07
4.06868e-07
4.07433e-07
4.08e-07
4.08568e-07
4.09138e-07
4.0971e-07
4.10283e-07
4.10858e-07
4.11435e-07
4.12013e-07
4.12593e-07
4.13174e-07
4.13757e-07
4.14342e-07
4.14929e-07
4.15517e-07
4.16108e-07
4.167e-07
4.17293e-07
4.17889e-07
4.18486e-07
4.19085e-07
4.19686e-07
4.20289e-07
4.20894e-07
4.21497e-07
4.22101e-07
4.22712e-07
4.23324e-07
4.23938e-07
4.24553e-07
4.25171e-07
4.2579e-07
4.26412e-07
4.27035e-07
4.27661e-07
4.28288e-07
4.28917e-07
4.29548e-07
4.30181e-07
4.30816e-07
4.31453e-07
4.32092e-07
4.32733e-07
4.33376e-07
4.34021e-07
4.34668e-07
4.35317e-07
4.35968e-07
4.36621e-07
4.37275e-07
4.37932e-07
4.38591e-07
4.39252e-07
4.39915e-07
4.4058e-07
4.41247e-07
4.41917e-07
4.42588e-07
4.43261e-07
4.43936e-07
4.44613e-07
4.45293e-07
4.45974e-07
4.46657e-07
4.47343e-07
4.4803e-07
4.4872e-07
4.49411e-07
4.50105e-07
4.50801e-07
4.51499e-07
4.52199e-07
4.52901e-07
4.53606e-07
4.54312e-07
4.55021e-07
4.55732e-07
4.56445e-07
4.57158e-07
4.57871e-07
4.5859e-07
4.59311e-07
4.60035e-07
4.6076e-07
4.61487e-07
4.62217e-07
4.62949e-07
4.63683e-07
4.64419e-07
4.65157e-07
4.65898e-07
4.66641e-07
4.67386e-07
4.68134e-07
4.68884e-07
4.69636e-07
4.7039e-07
4.71147e-07
4.71907e-07
4.72668e-07
4.73432e-07
4.74199e-07
4.74968e-07
4.7574e-07
4.76514e-07
4.77291e-07
4.7807e-07
4.78852e-07
4.79637e-07
4.80424e-07
4.81214e-07
4.82008e-07
4.82803e-07
4.83602e-07
4.84404e-07
4.85209e-07
4.86017e-07
4.86829e-07
4.87643e-07
4.88461e-07
4.89283e-07
4.90108e-07
4.90937e-07
4.9177e-07
4.92607e-07
4.93448e-07
4.94294e-07
4.95144e-07
4.96e-07
4.9686e-07
4.97726e-07
4.98597e-07
4.99474e-07
5.00358e-07
5.01249e-07
5.02147e-07
5.03052e-07
5.03966e-07
5.04889e-07
5.05822e-07
5.06765e-07
5.07718e-07
5.08684e-07
5.09663e-07
5.10656e-07
5.11664e-07
5.12688e-07
5.1373e-07
5.14792e-07
5.15874e-07
5.1698e-07
5.1811e-07
5.19266e-07
5.20452e-07
5.2167e-07
5.22923e-07
5.24213e-07
5.25543e-07
5.26919e-07
5.28342e-07
5.29818e-07
5.31351e-07
5.32946e-07
5.34608e-07
5.36343e-07
5.38157e-07
5.40057e-07
5.42049e-07
5.44143e-07
5.46345e-07
5.48666e-07
5.51114e-07
5.53699e-07
5.56434e-07
5.5933e-07
5.62399e-07
5.65655e-07
5.69112e-07
5.72786e-07
5.76694e-07
5.80852e-07
5.85279e-07
5.89995e-07
5.95021e-07
6.00379e-07
6.06092e-07
6.12186e-07
6.18685e-07
6.25618e-07
6.33014e-07
6.40902e-07
6.49314e-07
6.58284e-07
6.67846e-07
6.78036e-07
6.88892e-07
7.00452e-07
7.12756e-07
7.25845e-07
7.39762e-07
7.5455e-07
7.70253e-07
7.86915e-07
8.04581e-07
8.23295e-07
8.43104e-07
8.6405e-07
8.86176e-07
9.09524e-07
9.34131e-07
9.60035e-07
9.87268e-07
1.01586e-06
1.04583e-06
1.07719e-06
1.10996e-06
1.14413e-06
1.1797e-06
1.21664e-06
1.25493e-06
1.2945e-06
1.3353e-06
1.37725e-06
1.42025e-06
1.46417e-06
1.50887e-06
1.55418e-06
1.59991e-06
1.64585e-06
1.69175e-06
1.73733e-06
1.78231e-06
1.82635e-06
1.8691e-06
1.9102e-06
1.94925e-06
1.98584e-06
2.01953e-06
2.0499e-06
2.0765e-06
2.09887e-06
2.11658e-06
2.12918e-06
2.13621e-06
2.13733e-06
2.13217e-06
2.12034e-06
2.10152e-06
2.07542e-06
2.04178e-06
2.00039e-06
1.95108e-06
1.89373e-06
1.82826e-06
1.75465e-06
1.67293e-06
1.58322e-06
1.48567e-06
1.38056e-06
1.2682e-06
1.14907e-06
1.02374e-06
8.92939e-07
7.57577e-07
6.18794e-07
4.78001e-07
3.36953e-07
1.97821e-07
6.329e-08
)
;

boundaryField
{
    fixedWall
    {
        type            zeroGradient;
    }
    outlet
    {
        type            inletOutlet;
        inletValue      uniform 0;
        value           uniform 0;
    }
    defaultFaces
    {
        type            empty;
    }
}


// ************************************************************************* //
