/*--------------------------------*- C++ -*----------------------------------*\
| =========                 |                                                 |
| \\      /  F ield         | OpenFOAM: The Open Source CFD Toolbox           |
|  \\    /   O peration     | Version:  2406                                  |
|   \\  /    A nd           | Website:  www.openfoam.com                      |
|    \\/     M anipulation  |                                                 |
\*---------------------------------------------------------------------------*/
FoamFile
{
    version     2.0;
    format      ascii;
    arch        "LSB;label=32;scalar=64";
    class       surfaceScalarField;
    location    "9";
    object      phi;
}
// * * * * * * * * * * * * * * * * * * * * * * * * * * * * * * * * * * * * * //

dimensions      [1 0 -1 0 0 0 0];

oriented        oriented;

internalField   nonuniform List<scalar> 
999
(
-2.16336e-08
-7.12667e-08
-1.37877e-07
-2.15034e-07
-2.98794e-07
-3.86613e-07
-4.76821e-07
-5.68284e-07
-6.60216e-07
-7.52074e-07
-8.43465e-07
-9.34119e-07
-1.02384e-06
-1.11248e-06
-1.19995e-06
-1.28619e-06
-1.37114e-06
-1.45477e-06
-1.53708e-06
-1.61806e-06
-1.6977e-06
-1.776e-06
-1.85299e-06
-1.92867e-06
-2.00305e-06
-2.07615e-06
-2.14798e-06
-2.21857e-06
-2.28792e-06
-2.35606e-06
-2.42301e-06
-2.48877e-06
-2.55337e-06
-2.61683e-06
-2.67915e-06
-2.74037e-06
-2.80049e-06
-2.85952e-06
-2.91749e-06
-2.97441e-06
-3.03029e-06
-3.08516e-06
-3.13901e-06
-3.19187e-06
-3.24374e-06
-3.29465e-06
-3.34461e-06
-3.39362e-06
-3.4417e-06
-3.48886e-06
-3.53512e-06
-3.58048e-06
-3.62496e-06
-3.66857e-06
-3.71132e-06
-3.75321e-06
-3.79428e-06
-3.83451e-06
-3.87392e-06
-3.91254e-06
-3.95035e-06
-3.98738e-06
-4.02363e-06
-4.05912e-06
-4.09386e-06
-4.12785e-06
-4.1611e-06
-4.19363e-06
-4.22545e-06
-4.25656e-06
-4.28698e-06
-4.31671e-06
-4.34576e-06
-4.37415e-06
-4.40188e-06
-4.42896e-06
-4.45541e-06
-4.48123e-06
-4.50643e-06
-4.53103e-06
-4.55502e-06
-4.57842e-06
-4.60125e-06
-4.6235e-06
-4.64519e-06
-4.66632e-06
-4.68692e-06
-4.70697e-06
-4.72651e-06
-4.74552e-06
-4.76403e-06
-4.78204e-06
-4.79957e-06
-4.81661e-06
-4.83318e-06
-4.84929e-06
-4.86495e-06
-4.88016e-06
-4.89494e-06
-4.90929e-06
-4.92323e-06
-4.93675e-06
-4.94987e-06
-4.9626e-06
-4.97495e-06
-4.98691e-06
-4.99851e-06
-5.00976e-06
-5.02065e-06
-5.0312e-06
-5.04141e-06
-5.05129e-06
-5.06086e-06
-5.07011e-06
-5.07906e-06
-5.08772e-06
-5.09608e-06
-5.10416e-06
-5.11197e-06
-5.11951e-06
-5.12679e-06
-5.13381e-06
-5.14059e-06
-5.14713e-06
-5.15343e-06
-5.15951e-06
-5.16537e-06
-5.17101e-06
-5.17645e-06
-5.18168e-06
-5.18672e-06
-5.19157e-06
-5.19623e-06
-5.20071e-06
-5.20503e-06
-5.20917e-06
-5.21315e-06
-5.21698e-06
-5.22066e-06
-5.22418e-06
-5.22757e-06
-5.2308e-06
-5.23389e-06
-5.23687e-06
-5.23974e-06
-5.24247e-06
-5.24511e-06
-5.24764e-06
-5.25006e-06
-5.25237e-06
-5.25458e-06
-5.25669e-06
-5.25872e-06
-5.26065e-06
-5.26249e-06
-5.26426e-06
-5.26594e-06
-5.26755e-06
-5.26908e-06
-5.27055e-06
-5.27194e-06
-5.27328e-06
-5.27455e-06
-5.27576e-06
-5.27691e-06
-5.27801e-06
-5.27906e-06
-5.28005e-06
-5.281e-06
-5.2819e-06
-5.28276e-06
-5.28358e-06
-5.28435e-06
-5.28509e-06
-5.28579e-06
-5.28645e-06
-5.28708e-06
-5.28768e-06
-5.28825e-06
-5.28879e-06
-5.2893e-06
-5.28979e-06
-5.29025e-06
-5.29068e-06
-5.29109e-06
-5.29148e-06
-5.29185e-06
-5.2922e-06
-5.29253e-06
-5.29285e-06
-5.29314e-06
-5.29342e-06
-5.29369e-06
-5.29394e-06
-5.29417e-06
-5.2944e-06
-5.29461e-06
-5.29481e-06
-5.29499e-06
-5.29517e-06
-5.29534e-06
-5.29549e-06
-5.29564e-06
-5.29578e-06
-5.29591e-06
-5.29604e-06
-5.29615e-06
-5.29626e-06
-5.29636e-06
-5.29646e-06
-5.29655e-06
-5.29664e-06
-5.29672e-06
-5.29679e-06
-5.29686e-06
-5.29693e-06
-5.29699e-06
-5.29705e-06
-5.2971e-06
-5.29715e-06
-5.2972e-06
-5.29724e-06
-5.29728e-06
-5.29732e-06
-5.29736e-06
-5.29739e-06
-5.29742e-06
-5.29745e-06
-5.29747e-06
-5.2975e-06
-5.29752e-06
-5.29754e-06
-5.29756e-06
-5.29758e-06
-5.2976e-06
-5.29761e-06
-5.29763e-06
-5.29764e-06
-5.29765e-06
-5.29766e-06
-5.29767e-06
-5.29767e-06
-5.29768e-06
-5.29769e-06
-5.29769e-06
-5.2977e-06
-5.2977e-06
-5.2977e-06
-5.29771e-06
-5.29771e-06
-5.29771e-06
-5.29771e-06
-5.29771e-06
-5.29771e-06
-5.2977e-06
-5.2977e-06
-5.2977e-06
-5.2977e-06
-5.29769e-06
-5.29769e-06
-5.29769e-06
-5.29768e-06
-5.29768e-06
-5.29767e-06
-5.29767e-06
-5.29766e-06
-5.29766e-06
-5.29765e-06
-5.29765e-06
-5.29764e-06
-5.29763e-06
-5.29763e-06
-5.29762e-06
-5.29761e-06
-5.29761e-06
-5.2976e-06
-5.29759e-06
-5.29758e-06
-5.29757e-06
-5.29757e-06
-5.29756e-06
-5.29755e-06
-5.29754e-06
-5.29753e-06
-5.29753e-06
-5.29752e-06
-5.29751e-06
-5.2975e-06
-5.29749e-06
-5.29748e-06
-5.29747e-06
-5.29747e-06
-5.29746e-06
-5.29745e-06
-5.29744e-06
-5.29743e-06
-5.29742e-06
-5.29741e-06
-5.2974e-06
-5.2974e-06
-5.29739e-06
-5.29738e-06
-5.29737e-06
-5.29736e-06
-5.29735e-06
-5.29735e-06
-5.29734e-06
-5.29733e-06
-5.29732e-06
-5.29731e-06
-5.2973e-06
-5.2973e-06
-5.29729e-06
-5.29728e-06
-5.29727e-06
-5.29727e-06
-5.29726e-06
-5.29725e-06
-5.29724e-06
-5.29724e-06
-5.29723e-06
-5.29722e-06
-5.29721e-06
-5.29721e-06
-5.2972e-06
-5.29719e-06
-5.29719e-06
-5.29718e-06
-5.29718e-06
-5.29717e-06
-5.29716e-06
-5.29716e-06
-5.29715e-06
-5.29715e-06
-5.29714e-06
-5.29714e-06
-5.29713e-06
-5.29713e-06
-5.29712e-06
-5.29712e-06
-5.29712e-06
-5.29711e-06
-5.29711e-06
-5.29711e-06
-5.2971e-06
-5.2971e-06
-5.2971e-06
-5.29709e-06
-5.29709e-06
-5.29709e-06
-5.29709e-06
-5.29708e-06
-5.29708e-06
-5.29708e-06
-5.29708e-06
-5.29708e-06
-5.29708e-06
-5.29708e-06
-5.29707e-06
-5.29708e-06
-5.29707e-06
-5.29707e-06
-5.29707e-06
-5.29707e-06
-5.29707e-06
-5.29708e-06
-5.29708e-06
-5.29708e-06
-5.29708e-06
-5.29708e-06
-5.29708e-06
-5.29708e-06
-5.29708e-06
-5.29708e-06
-5.29708e-06
-5.29709e-06
-5.29709e-06
-5.29709e-06
-5.29709e-06
-5.29709e-06
-5.29709e-06
-5.2971e-06
-5.2971e-06
-5.2971e-06
-5.2971e-06
-5.2971e-06
-5.29711e-06
-5.29711e-06
-5.29711e-06
-5.29711e-06
-5.29711e-06
-5.29712e-06
-5.29712e-06
-5.29712e-06
-5.29712e-06
-5.29712e-06
-5.29713e-06
-5.29713e-06
-5.29713e-06
-5.29713e-06
-5.29713e-06
-5.29713e-06
-5.29714e-06
-5.29714e-06
-5.29714e-06
-5.29714e-06
-5.29714e-06
-5.29714e-06
-5.29714e-06
-5.29715e-06
-5.29715e-06
-5.29715e-06
-5.29715e-06
-5.29715e-06
-5.29715e-06
-5.29715e-06
-5.29715e-06
-5.29715e-06
-5.29715e-06
-5.29715e-06
-5.29715e-06
-5.29716e-06
-5.29715e-06
-5.29716e-06
-5.29716e-06
-5.29715e-06
-5.29715e-06
-5.29715e-06
-5.29715e-06
-5.29715e-06
-5.29715e-06
-5.29715e-06
-5.29715e-06
-5.29715e-06
-5.29715e-06
-5.29715e-06
-5.29715e-06
-5.29714e-06
-5.29714e-06
-5.29714e-06
-5.29714e-06
-5.29714e-06
-5.29714e-06
-5.29714e-06
-5.29714e-06
-5.29714e-06
-5.29713e-06
-5.29713e-06
-5.29713e-06
-5.29713e-06
-5.29713e-06
-5.29713e-06
-5.29713e-06
-5.29712e-06
-5.29712e-06
-5.29712e-06
-5.29712e-06
-5.29712e-06
-5.29712e-06
-5.29712e-06
-5.29712e-06
-5.29711e-06
-5.29711e-06
-5.29711e-06
-5.29711e-06
-5.29711e-06
-5.29711e-06
-5.29711e-06
-5.29711e-06
-5.2971e-06
-5.2971e-06
-5.2971e-06
-5.2971e-06
-5.2971e-06
-5.2971e-06
-5.2971e-06
-5.2971e-06
-5.29709e-06
-5.29709e-06
-5.29709e-06
-5.29709e-06
-5.29709e-06
-5.29709e-06
-5.29709e-06
-5.29709e-06
-5.29709e-06
-5.29709e-06
-5.29709e-06
-5.29709e-06
-5.29709e-06
-5.29709e-06
-5.29709e-06
-5.29709e-06
-5.29709e-06
-5.29709e-06
-5.29709e-06
-5.29709e-06
-5.29709e-06
-5.29709e-06
-5.29709e-06
-5.29709e-06
-5.29709e-06
-5.29709e-06
-5.29709e-06
-5.29709e-06
-5.29709e-06
-5.29709e-06
-5.29709e-06
-5.29709e-06
-5.29709e-06
-5.29709e-06
-5.29709e-06
-5.29709e-06
-5.29709e-06
-5.29709e-06
-5.29709e-06
-5.29709e-06
-5.29709e-06
-5.29709e-06
-5.29709e-06
-5.29709e-06
-5.29709e-06
-5.29709e-06
-5.29709e-06
-5.29709e-06
-5.29709e-06
-5.29709e-06
-5.29708e-06
-5.29708e-06
-5.29708e-06
-5.29708e-06
-5.29708e-06
-5.29708e-06
-5.29708e-06
-5.29708e-06
-5.29708e-06
-5.29708e-06
-5.29708e-06
-5.29708e-06
-5.29707e-06
-5.29707e-06
-5.29707e-06
-5.29707e-06
-5.29707e-06
-5.29707e-06
-5.29706e-06
-5.29706e-06
-5.29706e-06
-5.29706e-06
-5.29706e-06
-5.29705e-06
-5.29705e-06
-5.29705e-06
-5.29705e-06
-5.29704e-06
-5.29704e-06
-5.29704e-06
-5.29704e-06
-5.29704e-06
-5.29703e-06
-5.29703e-06
-5.29703e-06
-5.29703e-06
-5.29702e-06
-5.29702e-06
-5.29702e-06
-5.29702e-06
-5.29701e-06
-5.29701e-06
-5.29701e-06
-5.297e-06
-5.297e-06
-5.297e-06
-5.29699e-06
-5.29699e-06
-5.29699e-06
-5.29699e-06
-5.29698e-06
-5.29698e-06
-5.29698e-06
-5.29698e-06
-5.29698e-06
-5.29697e-06
-5.29697e-06
-5.29697e-06
-5.29697e-06
-5.29697e-06
-5.29696e-06
-5.29696e-06
-5.29696e-06
-5.29696e-06
-5.29696e-06
-5.29696e-06
-5.29695e-06
-5.29695e-06
-5.29695e-06
-5.29695e-06
-5.29695e-06
-5.29695e-06
-5.29695e-06
-5.29695e-06
-5.29695e-06
-5.29695e-06
-5.29694e-06
-5.29694e-06
-5.29694e-06
-5.29694e-06
-5.29694e-06
-5.29694e-06
-5.29694e-06
-5.29695e-06
-5.29695e-06
-5.29695e-06
-5.29695e-06
-5.29695e-06
-5.29695e-06
-5.29695e-06
-5.29695e-06
-5.29695e-06
-5.29695e-06
-5.29695e-06
-5.29695e-06
-5.29695e-06
-5.29696e-06
-5.29696e-06
-5.29696e-06
-5.29696e-06
-5.29696e-06
-5.29696e-06
-5.29696e-06
-5.29696e-06
-5.29697e-06
-5.29697e-06
-5.29697e-06
-5.29697e-06
-5.29697e-06
-5.29697e-06
-5.29698e-06
-5.29698e-06
-5.29698e-06
-5.29698e-06
-5.29698e-06
-5.29698e-06
-5.29699e-06
-5.29699e-06
-5.29699e-06
-5.29699e-06
-5.29699e-06
-5.29699e-06
-5.29699e-06
-5.29699e-06
-5.29699e-06
-5.29699e-06
-5.29699e-06
-5.29699e-06
-5.297e-06
-5.29699e-06
-5.297e-06
-5.29699e-06
-5.29699e-06
-5.29699e-06
-5.29699e-06
-5.29699e-06
-5.29699e-06
-5.29699e-06
-5.29699e-06
-5.29699e-06
-5.29699e-06
-5.29698e-06
-5.29698e-06
-5.29698e-06
-5.29698e-06
-5.29698e-06
-5.29697e-06
-5.29697e-06
-5.29697e-06
-5.29696e-06
-5.29696e-06
-5.29695e-06
-5.29695e-06
-5.29695e-06
-5.29694e-06
-5.29694e-06
-5.29693e-06
-5.29693e-06
-5.29692e-06
-5.29692e-06
-5.29691e-06
-5.29691e-06
-5.2969e-06
-5.2969e-06
-5.29689e-06
-5.29688e-06
-5.29688e-06
-5.29687e-06
-5.29687e-06
-5.29686e-06
-5.29685e-06
-5.29684e-06
-5.29684e-06
-5.29683e-06
-5.29682e-06
-5.29682e-06
-5.29681e-06
-5.2968e-06
-5.2968e-06
-5.29679e-06
-5.29678e-06
-5.29678e-06
-5.29677e-06
-5.29677e-06
-5.29676e-06
-5.29675e-06
-5.29675e-06
-5.29674e-06
-5.29674e-06
-5.29673e-06
-5.29673e-06
-5.29672e-06
-5.29672e-06
-5.29671e-06
-5.29671e-06
-5.2967e-06
-5.2967e-06
-5.2967e-06
-5.29669e-06
-5.29669e-06
-5.29669e-06
-5.29668e-06
-5.29668e-06
-5.29668e-06
-5.29668e-06
-5.29668e-06
-5.29668e-06
-5.29668e-06
-5.29668e-06
-5.29668e-06
-5.29668e-06
-5.29668e-06
-5.29668e-06
-5.29669e-06
-5.29669e-06
-5.29669e-06
-5.2967e-06
-5.2967e-06
-5.2967e-06
-5.29671e-06
-5.29671e-06
-5.29671e-06
-5.29672e-06
-5.29673e-06
-5.29673e-06
-5.29674e-06
-5.29674e-06
-5.29675e-06
-5.29676e-06
-5.29676e-06
-5.29677e-06
-5.29678e-06
-5.29678e-06
-5.29679e-06
-5.2968e-06
-5.29681e-06
-5.29681e-06
-5.29682e-06
-5.29683e-06
-5.29684e-06
-5.29684e-06
-5.29685e-06
-5.29686e-06
-5.29686e-06
-5.29687e-06
-5.29688e-06
-5.29688e-06
-5.29689e-06
-5.29689e-06
-5.2969e-06
-5.29691e-06
-5.29691e-06
-5.29692e-06
-5.29692e-06
-5.29692e-06
-5.29693e-06
-5.29693e-06
-5.29694e-06
-5.29694e-06
-5.29694e-06
-5.29694e-06
-5.29695e-06
-5.29695e-06
-5.29695e-06
-5.29695e-06
-5.29695e-06
-5.29695e-06
-5.29695e-06
-5.29694e-06
-5.29694e-06
-5.29694e-06
-5.29694e-06
-5.29694e-06
-5.29693e-06
-5.29693e-06
-5.29693e-06
-5.29692e-06
-5.29692e-06
-5.29692e-06
-5.29691e-06
-5.29691e-06
-5.29691e-06
-5.2969e-06
-5.2969e-06
-5.2969e-06
-5.29689e-06
-5.29689e-06
-5.29689e-06
-5.29688e-06
-5.29688e-06
-5.29688e-06
-5.29688e-06
-5.29688e-06
-5.29687e-06
-5.29688e-06
-5.29688e-06
-5.29688e-06
-5.29688e-06
-5.29689e-06
-5.2969e-06
-5.29691e-06
-5.29692e-06
-5.29693e-06
-5.29695e-06
-5.29697e-06
-5.29699e-06
-5.29701e-06
-5.29704e-06
-5.29708e-06
-5.29711e-06
-5.29716e-06
-5.29721e-06
-5.29726e-06
-5.29732e-06
-5.29739e-06
-5.29747e-06
-5.29756e-06
-5.29766e-06
-5.29778e-06
-5.2979e-06
-5.29804e-06
-5.29819e-06
-5.29836e-06
-5.29855e-06
-5.29877e-06
-5.299e-06
-5.29926e-06
-5.29955e-06
-5.29987e-06
-5.30022e-06
-5.30061e-06
-5.30104e-06
-5.30151e-06
-5.30203e-06
-5.3026e-06
-5.30323e-06
-5.30392e-06
-5.30468e-06
-5.30552e-06
-5.30644e-06
-5.30744e-06
-5.30854e-06
-5.30974e-06
-5.31106e-06
-5.3125e-06
-5.31407e-06
-5.31578e-06
-5.31765e-06
-5.31969e-06
-5.3219e-06
-5.32432e-06
-5.32694e-06
-5.3298e-06
-5.33289e-06
-5.33625e-06
-5.3399e-06
-5.34385e-06
-5.34812e-06
-5.35275e-06
-5.35775e-06
-5.36315e-06
-5.36899e-06
-5.37528e-06
-5.38206e-06
-5.38936e-06
-5.39723e-06
-5.40568e-06
-5.41477e-06
-5.42453e-06
-5.435e-06
-5.44623e-06
-5.45826e-06
-5.47114e-06
-5.48492e-06
-5.49965e-06
-5.51539e-06
-5.53218e-06
-5.5501e-06
-5.5692e-06
-5.58953e-06
-5.61117e-06
-5.63419e-06
-5.65865e-06
-5.68461e-06
-5.71217e-06
-5.74138e-06
-5.77233e-06
-5.8051e-06
-5.83977e-06
-5.87642e-06
-5.91513e-06
-5.95601e-06
-5.99912e-06
-6.04458e-06
-6.09246e-06
-6.14286e-06
-6.19589e-06
-6.25164e-06
-6.31021e-06
-6.37169e-06
-6.43621e-06
-6.50385e-06
-6.57472e-06
-6.64894e-06
-6.7266e-06
-6.80783e-06
-6.89274e-06
-6.98142e-06
-7.07401e-06
-7.17061e-06
-7.27135e-06
-7.37633e-06
-7.48569e-06
-7.59953e-06
-7.71799e-06
-7.84118e-06
-7.96923e-06
-8.10227e-06
-8.24042e-06
-8.38382e-06
-8.53259e-06
-8.68686e-06
-8.84679e-06
-9.01249e-06
-9.18413e-06
-9.36182e-06
-9.54574e-06
-9.73602e-06
-9.93281e-06
-1.01363e-05
-1.03466e-05
-1.05639e-05
-1.07885e-05
-1.10203e-05
-1.12598e-05
-1.1507e-05
-1.17621e-05
-1.20255e-05
-1.22972e-05
-1.25776e-05
-1.28669e-05
-1.31654e-05
-1.34733e-05
-1.37911e-05
-1.41191e-05
-1.44577e-05
-1.48075e-05
-1.5165e-05
-1.55345e-05
-1.59166e-05
-1.63118e-05
-1.67203e-05
-1.71426e-05
-1.75789e-05
-1.80297e-05
-1.84953e-05
-1.89762e-05
-1.94726e-05
-1.99847e-05
-2.05126e-05
-2.10559e-05
-2.1614e-05
-2.21856e-05
-2.27687e-05
-2.336e-05
-2.39546e-05
-2.45454e-05
-2.5122e-05
-2.56698e-05
-2.61678e-05
-2.65863e-05
-2.68836e-05
)
;

boundaryField
{
    fixedWall
    {
        type            calculated;
        value           uniform 0;
    }
    outlet
    {
        type            calculated;
        value           uniform -2.70013e-05;
    }
    defaultFaces
    {
        type            empty;
    }
}


// ************************************************************************* //
