/*--------------------------------*- C++ -*----------------------------------*\
| =========                 |                                                 |
| \\      /  F ield         | OpenFOAM: The Open Source CFD Toolbox           |
|  \\    /   O peration     | Version:  2406                                  |
|   \\  /    A nd           | Website:  www.openfoam.com                      |
|    \\/     M anipulation  |                                                 |
\*---------------------------------------------------------------------------*/
FoamFile
{
    version     2.0;
    format      ascii;
    arch        "LSB;label=32;scalar=64";
    class       volScalarField;
    location    "9";
    object      Qdot;
}
// * * * * * * * * * * * * * * * * * * * * * * * * * * * * * * * * * * * * * //

dimensions      [1 -1 -3 0 0 0 0];

internalField   nonuniform List<scalar> 
1000
(
-4.98424e-14
-4.49963e-17
-6.7718e-16
3.80442e-09
2.28265e-08
8.26601e-08
3.29146e-07
1.04314e-06
2.89316e-06
7.10933e-06
1.58146e-05
3.24045e-05
6.18296e-05
0.000110988
0.000188908
0.0003069
0.000478537
0.000719471
0.00104714
0.00148028
0.00203843
0.0027412
0.00360766
0.00465561
0.00590096
0.00735711
0.0090344
0.0109398
0.0130764
0.0154436
0.0180368
0.0208475
0.0238635
0.0270694
0.0304465
0.0339739
0.0376282
0.0413848
0.0452178
0.0491008
0.0530074
0.0569114
0.0607876
0.0646121
0.0683622
0.0720173
0.0755586
0.0789694
0.0822353
0.0853441
0.0882861
0.0910534
0.0936405
0.096044
0.0982623
0.100295
0.102145
0.103815
0.105309
0.106632
0.107792
0.108795
0.109649
0.110362
0.110943
0.111401
0.111744
0.111981
0.11212
0.112171
0.112142
0.11204
0.111874
0.11165
0.111376
0.111059
0.110704
0.110318
0.109905
0.109471
0.109021
0.108558
0.108087
0.10761
0.107132
0.106655
0.106182
0.105714
0.105255
0.104805
0.104366
0.10394
0.103527
0.103129
0.102746
0.102379
0.102029
0.101695
0.101378
0.101079
0.100797
0.100531
0.100283
0.100052
0.0998375
0.0996394
0.0994574
0.0992912
0.0991403
0.0990045
0.0988833
0.0987762
0.0986828
0.0986026
0.0985353
0.0984803
0.0984372
0.0984055
0.0983848
0.0983746
0.0983744
0.0983839
0.0984025
0.09843
0.0984658
0.0985096
0.098561
0.0986196
0.098685
0.098757
0.0988351
0.0989191
0.0990086
0.0991033
0.099203
0.0993074
0.0994161
0.0995291
0.0996459
0.0997665
0.0998906
0.100017
0.100147
0.10028
0.100416
0.100554
0.100695
0.100838
0.100984
0.101131
0.10128
0.101431
0.101584
0.101738
0.101893
0.10205
0.102208
0.102368
0.102528
0.10269
0.102852
0.103016
0.10318
0.103345
0.103511
0.103678
0.103845
0.104013
0.104182
0.104351
0.104521
0.104691
0.104862
0.105033
0.105205
0.105378
0.10555
0.105724
0.105897
0.106071
0.106246
0.106421
0.106596
0.106772
0.106948
0.107124
0.107301
0.107478
0.107655
0.107833
0.108011
0.10819
0.108369
0.108548
0.108728
0.108908
0.109088
0.109269
0.10945
0.109631
0.109813
0.109995
0.110178
0.11036
0.110544
0.110727
0.110911
0.111096
0.11128
0.111466
0.111651
0.111837
0.112023
0.11221
0.112397
0.112585
0.112773
0.112961
0.11315
0.113339
0.113528
0.113717
0.113907
0.114098
0.114289
0.114481
0.114673
0.114866
0.115059
0.115252
0.115446
0.11564
0.115835
0.11603
0.116225
0.116421
0.116618
0.116814
0.117012
0.11721
0.117408
0.117606
0.117805
0.118005
0.118205
0.118405
0.118606
0.118808
0.119009
0.119212
0.119415
0.119618
0.119821
0.120026
0.12023
0.120435
0.120641
0.120847
0.121054
0.121261
0.121468
0.121676
0.121885
0.122094
0.122303
0.122513
0.122724
0.122935
0.123146
0.123358
0.123571
0.123783
0.123997
0.124211
0.124425
0.12464
0.124856
0.125072
0.125289
0.125506
0.125723
0.125941
0.12616
0.126379
0.126599
0.126819
0.12704
0.127261
0.127483
0.127705
0.127928
0.128152
0.128376
0.1286
0.128825
0.129051
0.129277
0.129504
0.129731
0.129958
0.130186
0.130415
0.130645
0.130875
0.131106
0.131337
0.131569
0.131802
0.132035
0.132268
0.132503
0.132737
0.132973
0.133209
0.133445
0.133683
0.133921
0.134159
0.134398
0.134638
0.134878
0.135119
0.13536
0.135603
0.135845
0.136089
0.136333
0.136577
0.136823
0.137069
0.137315
0.137562
0.13781
0.138059
0.138308
0.138558
0.138808
0.139059
0.139311
0.139564
0.139817
0.140071
0.140325
0.14058
0.140836
0.141093
0.14135
0.141608
0.141867
0.142126
0.142386
0.142647
0.142908
0.143171
0.143433
0.143697
0.143962
0.144227
0.144492
0.144759
0.145026
0.145294
0.145563
0.145833
0.146103
0.146374
0.146646
0.146919
0.147192
0.147466
0.147741
0.148017
0.148293
0.148571
0.148849
0.149127
0.149407
0.149688
0.149969
0.150251
0.150534
0.150817
0.151102
0.151387
0.151673
0.15196
0.152248
0.152537
0.152826
0.153116
0.153407
0.153699
0.153992
0.154286
0.15458
0.154876
0.155172
0.155469
0.155767
0.156066
0.156365
0.156666
0.156967
0.15727
0.157573
0.157877
0.158182
0.158487
0.158794
0.159102
0.15941
0.15972
0.16003
0.160341
0.160653
0.160966
0.16128
0.161595
0.16191
0.162227
0.162545
0.162863
0.163183
0.163503
0.163824
0.164146
0.164469
0.164794
0.165119
0.165445
0.165772
0.166099
0.166428
0.166758
0.167089
0.167421
0.167753
0.168087
0.168422
0.168758
0.169094
0.169432
0.169771
0.17011
0.170451
0.170793
0.171135
0.171479
0.171824
0.17217
0.172516
0.172864
0.173213
0.173563
0.173914
0.174266
0.174619
0.174974
0.175329
0.175685
0.176043
0.176401
0.176761
0.177121
0.177483
0.177846
0.17821
0.178575
0.178941
0.179309
0.179677
0.180047
0.180417
0.180789
0.181162
0.181537
0.181912
0.182288
0.182666
0.183045
0.183425
0.183806
0.184189
0.184572
0.184957
0.185343
0.18573
0.186119
0.186508
0.186899
0.187292
0.187685
0.18808
0.188475
0.188873
0.189271
0.189671
0.190072
0.190474
0.190877
0.191282
0.191688
0.192096
0.192504
0.192914
0.193326
0.193738
0.194152
0.194568
0.194984
0.195402
0.195822
0.196241
0.196661
0.197084
0.197509
0.197936
0.198363
0.198792
0.199223
0.199655
0.200088
0.200523
0.200959
0.201397
0.201836
0.202276
0.202718
0.203162
0.203607
0.204053
0.204501
0.20495
0.205401
0.205853
0.206307
0.206762
0.207219
0.207677
0.208137
0.208598
0.209061
0.209526
0.209992
0.210459
0.210928
0.211398
0.211868
0.212341
0.212816
0.213293
0.213771
0.214251
0.214733
0.215216
0.215701
0.216187
0.216675
0.217165
0.217656
0.218149
0.218644
0.21914
0.219638
0.220138
0.220639
0.221142
0.221647
0.222154
0.222662
0.223172
0.223683
0.224197
0.224712
0.225229
0.225748
0.226268
0.22679
0.227314
0.22784
0.228368
0.228897
0.229428
0.229962
0.230496
0.231033
0.231572
0.232112
0.232655
0.233199
0.233745
0.234294
0.234844
0.235396
0.235949
0.236505
0.237063
0.237623
0.238185
0.238749
0.239314
0.239882
0.240452
0.241024
0.241598
0.242174
0.242752
0.243332
0.243914
0.244498
0.245085
0.245673
0.246264
0.246857
0.247451
0.248049
0.248648
0.249249
0.249853
0.250459
0.251067
0.251678
0.25229
0.252905
0.253522
0.254142
0.254761
0.255381
0.256007
0.256636
0.257267
0.257901
0.258536
0.259174
0.259815
0.260458
0.261103
0.261751
0.262401
0.263053
0.263708
0.264366
0.265026
0.265688
0.266353
0.267021
0.267691
0.268363
0.269038
0.269716
0.270396
0.271079
0.271765
0.272453
0.273144
0.273837
0.274533
0.275232
0.275934
0.276638
0.277345
0.278054
0.278767
0.279482
0.2802
0.28092
0.281644
0.28237
0.283099
0.283831
0.284566
0.285303
0.286044
0.286787
0.287534
0.288283
0.289035
0.28979
0.290548
0.291309
0.292073
0.29284
0.29361
0.294383
0.295159
0.295938
0.29672
0.297505
0.298293
0.299082
0.299872
0.300669
0.30147
0.302273
0.30308
0.30389
0.304703
0.305519
0.306339
0.307161
0.307987
0.308816
0.309649
0.310485
0.311324
0.312166
0.313012
0.313861
0.314713
0.315569
0.316428
0.317291
0.318157
0.319027
0.3199
0.320776
0.321657
0.32254
0.323428
0.324318
0.325213
0.326111
0.327013
0.327918
0.328828
0.32974
0.330657
0.331578
0.332502
0.33343
0.334362
0.335298
0.336238
0.337182
0.33813
0.339081
0.340037
0.340997
0.341961
0.342929
0.343901
0.344878
0.345859
0.346844
0.347833
0.348826
0.349824
0.350826
0.351833
0.352844
0.35386
0.35488
0.355904
0.356934
0.357967
0.359002
0.360039
0.361086
0.362139
0.363195
0.364257
0.365324
0.366395
0.367471
0.368552
0.369638
0.370729
0.371824
0.372925
0.374031
0.375142
0.376258
0.377378
0.378504
0.379636
0.380772
0.381914
0.38306
0.384212
0.38537
0.386532
0.3877
0.388873
0.390052
0.391236
0.392425
0.39362
0.39482
0.396026
0.397237
0.398454
0.399676
0.400904
0.402138
0.403377
0.404622
0.405873
0.407129
0.408391
0.409659
0.410933
0.412213
0.413498
0.41479
0.416087
0.417391
0.4187
0.420016
0.421338
0.422666
0.424
0.425332
0.426678
0.42803
0.429388
0.430752
0.432122
0.433499
0.434882
0.436272
0.437668
0.439071
0.44048
0.441896
0.443318
0.444748
0.446184
0.447626
0.449076
0.450532
0.451995
0.453466
0.454943
0.456427
0.457919
0.459417
0.460923
0.462436
0.463956
0.465483
0.467018
0.46856
0.47011
0.471667
0.473232
0.474804
0.476384
0.477971
0.479567
0.48117
0.48278
0.484399
0.486026
0.48766
0.489303
0.490953
0.492612
0.494279
0.495954
0.497637
0.499329
0.50103
0.502739
0.504456
0.506183
0.507919
0.509663
0.511418
0.513182
0.514955
0.516739
0.518534
0.520339
0.522156
0.523985
0.525826
0.52768
0.529548
0.531431
0.53333
0.535245
0.537178
0.53913
0.541103
0.543098
0.545118
0.547164
0.54924
0.551347
0.553488
0.555667
0.557888
0.560154
0.562471
0.564842
0.567273
0.56977
0.572341
0.574991
0.577728
0.580561
0.5835
0.586554
0.589733
0.59305
0.596518
0.600149
0.603958
0.607962
0.612175
0.616617
0.621306
0.626262
0.631506
0.637059
0.642946
0.649191
0.655817
0.662852
0.670321
0.678253
0.686673
0.69561
0.705091
0.715141
0.725788
0.737053
0.74896
0.761526
0.774767
0.788692
0.803306
0.818606
0.834582
0.851213
0.868466
0.886298
0.904646
0.923434
0.942565
0.961921
0.981359
1.00071
1.01979
1.03836
1.05617
1.07294
1.08836
1.10207
1.1137
1.12287
1.12915
1.13212
1.13135
1.12644
1.11697
1.1026
1.08302
1.058
1.02741
0.991214
0.949509
0.902537
0.850686
0.794502
0.734687
0.672082
0.607655
0.54247
0.477646
0.414319
0.353587
0.296462
0.243816
0.196444
0.155077
0.119025
0.0888539
0.0643306
0.0450234
0.0303465
0.0196131
0.0120941
0.00707375
0.00389757
0.00200675
0.000956279
0.000416961
0.000164082
5.73128e-05
1.74121e-05
4.48608e-06
9.49962e-07
1.58261e-07
1.94587e-08
1.90221e-09
-4.30095e-10
-5.98087e-18
-5.5896e-20
0
)
;

boundaryField
{
    fixedWall
    {
        type            calculated;
        value           uniform 0;
    }
    outlet
    {
        type            calculated;
        value           uniform 0;
    }
    defaultFaces
    {
        type            empty;
    }
}


// ************************************************************************* //
