/*--------------------------------*- C++ -*----------------------------------*\
| =========                 |                                                 |
| \\      /  F ield         | OpenFOAM: The Open Source CFD Toolbox           |
|  \\    /   O peration     | Version:  2406                                  |
|   \\  /    A nd           | Website:  www.openfoam.com                      |
|    \\/     M anipulation  |                                                 |
\*---------------------------------------------------------------------------*/
FoamFile
{
    version     2.0;
    format      ascii;
    arch        "LSB;label=32;scalar=64";
    class       volScalarField;
    location    "9";
    object      T;
}
// * * * * * * * * * * * * * * * * * * * * * * * * * * * * * * * * * * * * * //

dimensions      [0 0 0 1 0 0 0];

internalField   nonuniform List<scalar> 
1000
(
306.6
331.531
354.509
375.861
395.83
414.6
432.319
449.104
465.052
480.243
494.746
508.618
521.91
534.665
546.92
558.71
570.064
581.008
591.567
601.761
611.609
621.13
630.34
639.252
647.881
656.239
664.337
672.186
679.796
687.176
694.334
701.279
708.019
714.56
720.909
727.073
733.057
738.868
744.51
749.989
755.31
760.478
765.497
770.371
775.104
779.701
784.165
788.5
792.71
796.797
800.766
804.619
808.36
811.991
815.516
818.937
822.256
825.478
828.603
831.636
834.577
837.43
840.197
842.879
845.48
848.001
850.445
852.813
855.108
857.331
859.484
861.569
863.589
865.544
867.436
869.268
871.04
872.755
874.413
876.017
877.568
879.067
880.516
881.917
883.27
884.577
885.839
887.058
888.234
889.37
890.466
891.523
892.543
893.526
894.474
895.388
896.268
897.117
897.934
898.721
899.479
900.208
900.91
901.586
902.235
902.86
903.461
904.038
904.593
905.126
905.638
906.129
906.601
907.054
907.489
907.906
908.306
908.689
909.057
909.409
909.746
910.069
910.379
910.675
910.958
911.23
911.489
911.737
911.974
912.201
912.418
912.625
912.822
913.011
913.191
913.363
913.526
913.683
913.832
913.974
914.109
914.238
914.36
914.476
914.587
914.693
914.793
914.889
914.98
915.066
915.148
915.226
915.3
915.371
915.437
915.5
915.56
915.617
915.671
915.722
915.77
915.816
915.859
915.9
915.939
915.975
916.01
916.042
916.073
916.102
916.13
916.155
916.18
916.203
916.224
916.245
916.264
916.282
916.298
916.314
916.329
916.343
916.356
916.369
916.38
916.391
916.401
916.41
916.419
916.427
916.435
916.442
916.449
916.455
916.46
916.466
916.471
916.475
916.479
916.483
916.487
916.49
916.493
916.496
916.498
916.5
916.502
916.504
916.506
916.507
916.509
916.51
916.511
916.512
916.513
916.513
916.514
916.514
916.515
916.515
916.515
916.515
916.515
916.515
916.515
916.515
916.515
916.515
916.515
916.514
916.514
916.514
916.513
916.513
916.512
916.512
916.511
916.511
916.51
916.51
916.509
916.509
916.508
916.507
916.507
916.506
916.506
916.505
916.505
916.504
916.503
916.503
916.502
916.502
916.501
916.501
916.5
916.499
916.499
916.498
916.498
916.497
916.497
916.496
916.496
916.495
916.495
916.494
916.494
916.494
916.493
916.493
916.492
916.492
916.492
916.491
916.491
916.491
916.49
916.49
916.49
916.49
916.489
916.489
916.489
916.489
916.489
916.488
916.488
916.488
916.488
916.488
916.488
916.488
916.488
916.487
916.487
916.487
916.487
916.487
916.487
916.487
916.487
916.487
916.487
916.488
916.488
916.488
916.488
916.488
916.488
916.488
916.488
916.488
916.489
916.489
916.489
916.489
916.489
916.49
916.49
916.49
916.49
916.49
916.491
916.491
916.491
916.491
916.492
916.492
916.492
916.493
916.493
916.493
916.493
916.494
916.494
916.494
916.495
916.495
916.495
916.496
916.496
916.496
916.497
916.497
916.497
916.498
916.498
916.498
916.499
916.499
916.499
916.5
916.5
916.5
916.501
916.501
916.501
916.502
916.502
916.502
916.503
916.503
916.503
916.503
916.504
916.504
916.504
916.505
916.505
916.505
916.505
916.506
916.506
916.506
916.506
916.507
916.507
916.507
916.507
916.508
916.508
916.508
916.508
916.508
916.509
916.509
916.509
916.509
916.509
916.509
916.51
916.51
916.51
916.51
916.51
916.51
916.51
916.51
916.511
916.511
916.511
916.511
916.511
916.511
916.511
916.511
916.511
916.511
916.511
916.511
916.512
916.512
916.512
916.512
916.512
916.512
916.512
916.512
916.512
916.512
916.512
916.512
916.512
916.512
916.512
916.512
916.512
916.512
916.512
916.512
916.512
916.512
916.512
916.512
916.512
916.512
916.512
916.513
916.513
916.513
916.513
916.513
916.513
916.513
916.513
916.513
916.513
916.513
916.513
916.513
916.513
916.513
916.513
916.513
916.513
916.513
916.513
916.513
916.513
916.513
916.513
916.513
916.513
916.514
916.514
916.514
916.514
916.514
916.514
916.514
916.514
916.514
916.514
916.514
916.514
916.514
916.514
916.514
916.514
916.514
916.514
916.514
916.514
916.514
916.514
916.514
916.515
916.515
916.515
916.515
916.515
916.515
916.515
916.515
916.515
916.515
916.515
916.515
916.515
916.515
916.515
916.515
916.515
916.515
916.515
916.515
916.515
916.515
916.515
916.515
916.515
916.515
916.515
916.515
916.515
916.515
916.515
916.515
916.515
916.515
916.515
916.515
916.515
916.515
916.515
916.515
916.515
916.515
916.515
916.515
916.515
916.515
916.515
916.515
916.515
916.515
916.515
916.515
916.515
916.515
916.515
916.515
916.515
916.515
916.515
916.515
916.515
916.515
916.515
916.515
916.515
916.515
916.515
916.515
916.515
916.515
916.515
916.515
916.515
916.515
916.515
916.515
916.515
916.515
916.515
916.515
916.515
916.515
916.515
916.515
916.515
916.516
916.516
916.516
916.516
916.516
916.516
916.516
916.516
916.516
916.516
916.516
916.516
916.516
916.516
916.517
916.517
916.517
916.517
916.517
916.517
916.517
916.517
916.517
916.517
916.517
916.517
916.518
916.518
916.518
916.518
916.518
916.518
916.518
916.518
916.518
916.518
916.518
916.518
916.518
916.518
916.519
916.519
916.519
916.519
916.519
916.519
916.519
916.519
916.519
916.519
916.519
916.519
916.519
916.519
916.519
916.519
916.519
916.519
916.519
916.519
916.519
916.519
916.519
916.519
916.519
916.519
916.519
916.518
916.518
916.518
916.518
916.518
916.518
916.518
916.518
916.518
916.518
916.518
916.518
916.518
916.517
916.517
916.517
916.517
916.517
916.517
916.517
916.517
916.517
916.517
916.517
916.516
916.516
916.516
916.516
916.516
916.516
916.516
916.516
916.516
916.516
916.515
916.515
916.515
916.515
916.515
916.515
916.515
916.515
916.515
916.515
916.515
916.515
916.515
916.515
916.515
916.515
916.515
916.515
916.515
916.515
916.515
916.515
916.515
916.515
916.515
916.515
916.515
916.515
916.515
916.516
916.516
916.516
916.516
916.516
916.516
916.516
916.516
916.517
916.517
916.517
916.517
916.517
916.517
916.518
916.518
916.518
916.518
916.518
916.519
916.519
916.519
916.519
916.519
916.52
916.52
916.52
916.52
916.521
916.521
916.521
916.521
916.521
916.522
916.522
916.522
916.522
916.522
916.522
916.523
916.523
916.523
916.523
916.523
916.523
916.523
916.523
916.523
916.523
916.523
916.524
916.524
916.524
916.524
916.524
916.524
916.523
916.523
916.523
916.523
916.523
916.523
916.523
916.523
916.523
916.523
916.522
916.522
916.522
916.522
916.522
916.521
916.521
916.521
916.521
916.52
916.52
916.52
916.52
916.519
916.519
916.519
916.518
916.518
916.518
916.517
916.517
916.517
916.516
916.516
916.516
916.516
916.515
916.515
916.515
916.514
916.514
916.514
916.513
916.513
916.513
916.512
916.512
916.512
916.512
916.511
916.511
916.511
916.511
916.51
916.51
916.51
916.51
916.509
916.509
916.509
916.509
916.509
916.508
916.508
916.508
916.508
916.507
916.507
916.507
916.507
916.506
916.506
916.506
916.505
916.505
916.505
916.504
916.504
916.503
916.502
916.502
916.501
916.5
916.499
916.498
916.497
916.495
916.494
916.492
916.49
916.488
916.486
916.483
916.48
916.477
916.473
916.469
916.465
916.46
916.455
916.449
916.442
916.435
916.427
916.418
916.408
916.397
916.385
916.372
916.357
916.341
916.324
916.304
916.283
916.26
916.234
916.207
916.176
916.143
916.107
916.067
916.024
915.976
915.925
915.869
915.808
915.742
915.67
915.593
915.508
915.417
915.318
915.21
915.095
914.97
914.834
914.689
914.532
914.363
914.181
913.985
913.775
913.55
913.308
913.048
912.771
912.474
912.156
911.816
911.453
911.067
910.654
910.215
909.747
909.25
908.721
908.16
907.564
906.933
906.264
905.555
904.805
904.012
903.175
902.291
901.357
900.374
899.337
898.246
897.097
895.89
894.621
893.288
891.888
890.42
888.881
887.268
885.579
883.811
881.96
880.025
878.001
875.887
873.679
871.373
868.965
866.453
863.833
861.1
858.25
855.279
852.182
848.954
845.591
842.087
838.435
834.63
830.666
826.535
822.229
817.742
813.065
808.188
803.102
797.797
792.261
786.484
780.452
774.152
767.569
760.688
753.492
745.963
738.083
729.831
721.225
712.276
702.779
692.817
682.363
671.386
659.858
647.746
635.019
621.644
607.586
592.815
577.297
561.004
543.908
525.99
507.234
487.633
467.194
445.937
423.899
401.138
377.742
353.825
329.544
305.101
)
;

boundaryField
{
    fixedWall
    {
        type            fixedValue;
        value           uniform 293;
    }
    outlet
    {
        type            inletOutlet;
        inletValue      uniform 293;
        value           uniform 293;
    }
    defaultFaces
    {
        type            empty;
    }
}


// ************************************************************************* //
