/*--------------------------------*- C++ -*----------------------------------*\
| =========                 |                                                 |
| \\      /  F ield         | OpenFOAM: The Open Source CFD Toolbox           |
|  \\    /   O peration     | Version:  2406                                  |
|   \\  /    A nd           | Website:  www.openfoam.com                      |
|    \\/     M anipulation  |                                                 |
\*---------------------------------------------------------------------------*/
FoamFile
{
    version     2.0;
    format      ascii;
    arch        "LSB;label=32;scalar=64";
    class       volVectorField;
    location    "9";
    object      U;
}
// * * * * * * * * * * * * * * * * * * * * * * * * * * * * * * * * * * * * * //

dimensions      [0 1 -1 0 0 0 0];

internalField   nonuniform List<vector> 
1000
(
(-1.18219e-06 0 0)
(-5.53738e-06 0 0)
(-1.40411e-05 0 0)
(-2.56775e-05 0 0)
(-3.96852e-05 0 0)
(-5.5611e-05 0 0)
(-7.31421e-05 0 0)
(-9.20262e-05 0 0)
(-0.000112054 0 0)
(-0.000133049 0 0)
(-0.000154867 0 0)
(-0.000177383 0 0)
(-0.000200493 0 0)
(-0.000224104 0 0)
(-0.00024814 0 0)
(-0.000272529 0 0)
(-0.00029721 0 0)
(-0.000322131 0 0)
(-0.000347241 0 0)
(-0.000372499 0 0)
(-0.000397863 0 0)
(-0.0004233 0 0)
(-0.000448776 0 0)
(-0.000474264 0 0)
(-0.000499734 0 0)
(-0.000525164 0 0)
(-0.000550529 0 0)
(-0.000575811 0 0)
(-0.000600988 0 0)
(-0.000626045 0 0)
(-0.000650963 0 0)
(-0.000675728 0 0)
(-0.000700326 0 0)
(-0.000724743 0 0)
(-0.000748969 0 0)
(-0.00077299 0 0)
(-0.000796797 0 0)
(-0.000820381 0 0)
(-0.000843732 0 0)
(-0.000866842 0 0)
(-0.000889703 0 0)
(-0.000912309 0 0)
(-0.000934652 0 0)
(-0.000956727 0 0)
(-0.000978528 0 0)
(-0.00100005 0 0)
(-0.00102129 0 0)
(-0.00104224 0 0)
(-0.0010629 0 0)
(-0.00108327 0 0)
(-0.00110333 0 0)
(-0.0011231 0 0)
(-0.00114257 0 0)
(-0.00116173 0 0)
(-0.00118059 0 0)
(-0.00119913 0 0)
(-0.00121738 0 0)
(-0.00123531 0 0)
(-0.00125293 0 0)
(-0.00127024 0 0)
(-0.00128724 0 0)
(-0.00130394 0 0)
(-0.00132032 0 0)
(-0.0013364 0 0)
(-0.00135217 0 0)
(-0.00136763 0 0)
(-0.00138279 0 0)
(-0.00139764 0 0)
(-0.00141219 0 0)
(-0.00142645 0 0)
(-0.0014404 0 0)
(-0.00145406 0 0)
(-0.00146743 0 0)
(-0.0014805 0 0)
(-0.00149328 0 0)
(-0.00150578 0 0)
(-0.001518 0 0)
(-0.00152993 0 0)
(-0.00154159 0 0)
(-0.00155297 0 0)
(-0.00156409 0 0)
(-0.00157493 0 0)
(-0.00158551 0 0)
(-0.00159583 0 0)
(-0.00160589 0 0)
(-0.00161569 0 0)
(-0.00162525 0 0)
(-0.00163456 0 0)
(-0.00164362 0 0)
(-0.00165245 0 0)
(-0.00166104 0 0)
(-0.0016694 0 0)
(-0.00167753 0 0)
(-0.00168543 0 0)
(-0.00169312 0 0)
(-0.00170059 0 0)
(-0.00170784 0 0)
(-0.00171489 0 0)
(-0.00172173 0 0)
(-0.00172838 0 0)
(-0.00173482 0 0)
(-0.00174108 0 0)
(-0.00174714 0 0)
(-0.00175302 0 0)
(-0.00175872 0 0)
(-0.00176425 0 0)
(-0.0017696 0 0)
(-0.00177478 0 0)
(-0.00177979 0 0)
(-0.00178465 0 0)
(-0.00178934 0 0)
(-0.00179389 0 0)
(-0.00179828 0 0)
(-0.00180253 0 0)
(-0.00180663 0 0)
(-0.00181059 0 0)
(-0.00181442 0 0)
(-0.00181812 0 0)
(-0.00182169 0 0)
(-0.00182513 0 0)
(-0.00182845 0 0)
(-0.00183165 0 0)
(-0.00183474 0 0)
(-0.00183771 0 0)
(-0.00184058 0 0)
(-0.00184334 0 0)
(-0.001846 0 0)
(-0.00184856 0 0)
(-0.00185102 0 0)
(-0.00185339 0 0)
(-0.00185567 0 0)
(-0.00185786 0 0)
(-0.00185996 0 0)
(-0.00186198 0 0)
(-0.00186393 0 0)
(-0.00186579 0 0)
(-0.00186758 0 0)
(-0.0018693 0 0)
(-0.00187095 0 0)
(-0.00187253 0 0)
(-0.00187405 0 0)
(-0.0018755 0 0)
(-0.00187688 0 0)
(-0.00187821 0 0)
(-0.00187948 0 0)
(-0.00188071 0 0)
(-0.00188188 0 0)
(-0.001883 0 0)
(-0.00188408 0 0)
(-0.0018851 0 0)
(-0.00188608 0 0)
(-0.00188702 0 0)
(-0.00188791 0 0)
(-0.00188877 0 0)
(-0.00188958 0 0)
(-0.00189036 0 0)
(-0.0018911 0 0)
(-0.00189181 0 0)
(-0.00189249 0 0)
(-0.00189313 0 0)
(-0.00189375 0 0)
(-0.00189433 0 0)
(-0.00189489 0 0)
(-0.00189542 0 0)
(-0.00189592 0 0)
(-0.0018964 0 0)
(-0.00189686 0 0)
(-0.00189729 0 0)
(-0.00189771 0 0)
(-0.0018981 0 0)
(-0.00189847 0 0)
(-0.00189883 0 0)
(-0.00189916 0 0)
(-0.00189948 0 0)
(-0.00189978 0 0)
(-0.00190007 0 0)
(-0.00190034 0 0)
(-0.0019006 0 0)
(-0.00190085 0 0)
(-0.00190108 0 0)
(-0.0019013 0 0)
(-0.0019015 0 0)
(-0.0019017 0 0)
(-0.00190189 0 0)
(-0.00190206 0 0)
(-0.00190223 0 0)
(-0.00190239 0 0)
(-0.00190254 0 0)
(-0.00190268 0 0)
(-0.00190281 0 0)
(-0.00190294 0 0)
(-0.00190305 0 0)
(-0.00190317 0 0)
(-0.00190327 0 0)
(-0.00190337 0 0)
(-0.00190346 0 0)
(-0.00190355 0 0)
(-0.00190363 0 0)
(-0.00190371 0 0)
(-0.00190379 0 0)
(-0.00190385 0 0)
(-0.00190392 0 0)
(-0.00190398 0 0)
(-0.00190404 0 0)
(-0.00190409 0 0)
(-0.00190414 0 0)
(-0.00190419 0 0)
(-0.00190423 0 0)
(-0.00190428 0 0)
(-0.00190431 0 0)
(-0.00190435 0 0)
(-0.00190438 0 0)
(-0.00190442 0 0)
(-0.00190445 0 0)
(-0.00190447 0 0)
(-0.0019045 0 0)
(-0.00190452 0 0)
(-0.00190455 0 0)
(-0.00190457 0 0)
(-0.00190459 0 0)
(-0.0019046 0 0)
(-0.00190462 0 0)
(-0.00190464 0 0)
(-0.00190465 0 0)
(-0.00190466 0 0)
(-0.00190467 0 0)
(-0.00190469 0 0)
(-0.0019047 0 0)
(-0.00190471 0 0)
(-0.00190471 0 0)
(-0.00190472 0 0)
(-0.00190473 0 0)
(-0.00190473 0 0)
(-0.00190474 0 0)
(-0.00190475 0 0)
(-0.00190475 0 0)
(-0.00190475 0 0)
(-0.00190476 0 0)
(-0.00190476 0 0)
(-0.00190476 0 0)
(-0.00190476 0 0)
(-0.00190477 0 0)
(-0.00190477 0 0)
(-0.00190477 0 0)
(-0.00190477 0 0)
(-0.00190477 0 0)
(-0.00190477 0 0)
(-0.00190477 0 0)
(-0.00190477 0 0)
(-0.00190477 0 0)
(-0.00190477 0 0)
(-0.00190477 0 0)
(-0.00190477 0 0)
(-0.00190476 0 0)
(-0.00190477 0 0)
(-0.00190477 0 0)
(-0.00190476 0 0)
(-0.00190476 0 0)
(-0.00190476 0 0)
(-0.00190475 0 0)
(-0.00190476 0 0)
(-0.00190475 0 0)
(-0.00190475 0 0)
(-0.00190474 0 0)
(-0.00190474 0 0)
(-0.00190474 0 0)
(-0.00190474 0 0)
(-0.00190473 0 0)
(-0.00190473 0 0)
(-0.00190473 0 0)
(-0.00190472 0 0)
(-0.00190472 0 0)
(-0.00190472 0 0)
(-0.00190471 0 0)
(-0.00190471 0 0)
(-0.0019047 0 0)
(-0.00190471 0 0)
(-0.0019047 0 0)
(-0.0019047 0 0)
(-0.00190469 0 0)
(-0.00190469 0 0)
(-0.00190469 0 0)
(-0.00190468 0 0)
(-0.00190468 0 0)
(-0.00190468 0 0)
(-0.00190467 0 0)
(-0.00190467 0 0)
(-0.00190466 0 0)
(-0.00190466 0 0)
(-0.00190466 0 0)
(-0.00190465 0 0)
(-0.00190466 0 0)
(-0.00190465 0 0)
(-0.00190465 0 0)
(-0.00190464 0 0)
(-0.00190464 0 0)
(-0.00190464 0 0)
(-0.00190463 0 0)
(-0.00190463 0 0)
(-0.00190463 0 0)
(-0.00190462 0 0)
(-0.00190462 0 0)
(-0.00190462 0 0)
(-0.00190461 0 0)
(-0.00190461 0 0)
(-0.00190461 0 0)
(-0.0019046 0 0)
(-0.00190461 0 0)
(-0.0019046 0 0)
(-0.00190459 0 0)
(-0.0019046 0 0)
(-0.00190459 0 0)
(-0.00190459 0 0)
(-0.00190459 0 0)
(-0.00190458 0 0)
(-0.00190459 0 0)
(-0.00190458 0 0)
(-0.00190458 0 0)
(-0.00190457 0 0)
(-0.00190457 0 0)
(-0.00190457 0 0)
(-0.00190457 0 0)
(-0.00190457 0 0)
(-0.00190456 0 0)
(-0.00190457 0 0)
(-0.00190456 0 0)
(-0.00190456 0 0)
(-0.00190455 0 0)
(-0.00190456 0 0)
(-0.00190455 0 0)
(-0.00190455 0 0)
(-0.00190455 0 0)
(-0.00190455 0 0)
(-0.00190455 0 0)
(-0.00190455 0 0)
(-0.00190455 0 0)
(-0.00190454 0 0)
(-0.00190455 0 0)
(-0.00190454 0 0)
(-0.00190455 0 0)
(-0.00190454 0 0)
(-0.00190454 0 0)
(-0.00190454 0 0)
(-0.00190454 0 0)
(-0.00190454 0 0)
(-0.00190454 0 0)
(-0.00190454 0 0)
(-0.00190454 0 0)
(-0.00190454 0 0)
(-0.00190454 0 0)
(-0.00190454 0 0)
(-0.00190454 0 0)
(-0.00190454 0 0)
(-0.00190454 0 0)
(-0.00190454 0 0)
(-0.00190454 0 0)
(-0.00190454 0 0)
(-0.00190454 0 0)
(-0.00190454 0 0)
(-0.00190454 0 0)
(-0.00190454 0 0)
(-0.00190454 0 0)
(-0.00190454 0 0)
(-0.00190454 0 0)
(-0.00190454 0 0)
(-0.00190454 0 0)
(-0.00190454 0 0)
(-0.00190454 0 0)
(-0.00190454 0 0)
(-0.00190455 0 0)
(-0.00190455 0 0)
(-0.00190455 0 0)
(-0.00190455 0 0)
(-0.00190455 0 0)
(-0.00190455 0 0)
(-0.00190455 0 0)
(-0.00190455 0 0)
(-0.00190455 0 0)
(-0.00190456 0 0)
(-0.00190456 0 0)
(-0.00190456 0 0)
(-0.00190456 0 0)
(-0.00190456 0 0)
(-0.00190456 0 0)
(-0.00190456 0 0)
(-0.00190456 0 0)
(-0.00190457 0 0)
(-0.00190456 0 0)
(-0.00190457 0 0)
(-0.00190457 0 0)
(-0.00190457 0 0)
(-0.00190457 0 0)
(-0.00190457 0 0)
(-0.00190457 0 0)
(-0.00190457 0 0)
(-0.00190457 0 0)
(-0.00190458 0 0)
(-0.00190458 0 0)
(-0.00190458 0 0)
(-0.00190458 0 0)
(-0.00190458 0 0)
(-0.00190458 0 0)
(-0.00190458 0 0)
(-0.00190458 0 0)
(-0.00190458 0 0)
(-0.00190458 0 0)
(-0.00190458 0 0)
(-0.00190459 0 0)
(-0.00190458 0 0)
(-0.00190459 0 0)
(-0.00190459 0 0)
(-0.00190458 0 0)
(-0.00190459 0 0)
(-0.00190459 0 0)
(-0.00190459 0 0)
(-0.00190459 0 0)
(-0.00190459 0 0)
(-0.00190459 0 0)
(-0.00190459 0 0)
(-0.00190459 0 0)
(-0.00190459 0 0)
(-0.00190459 0 0)
(-0.00190459 0 0)
(-0.00190459 0 0)
(-0.00190459 0 0)
(-0.00190459 0 0)
(-0.00190459 0 0)
(-0.00190459 0 0)
(-0.00190459 0 0)
(-0.00190459 0 0)
(-0.00190459 0 0)
(-0.00190459 0 0)
(-0.00190459 0 0)
(-0.00190459 0 0)
(-0.00190459 0 0)
(-0.00190459 0 0)
(-0.00190459 0 0)
(-0.00190458 0 0)
(-0.00190459 0 0)
(-0.00190458 0 0)
(-0.00190459 0 0)
(-0.00190459 0 0)
(-0.00190458 0 0)
(-0.00190459 0 0)
(-0.00190458 0 0)
(-0.00190459 0 0)
(-0.00190458 0 0)
(-0.00190458 0 0)
(-0.00190459 0 0)
(-0.00190458 0 0)
(-0.00190458 0 0)
(-0.00190458 0 0)
(-0.00190458 0 0)
(-0.00190458 0 0)
(-0.00190458 0 0)
(-0.00190458 0 0)
(-0.00190458 0 0)
(-0.00190458 0 0)
(-0.00190458 0 0)
(-0.00190458 0 0)
(-0.00190458 0 0)
(-0.00190458 0 0)
(-0.00190458 0 0)
(-0.00190458 0 0)
(-0.00190457 0 0)
(-0.00190458 0 0)
(-0.00190457 0 0)
(-0.00190458 0 0)
(-0.00190458 0 0)
(-0.00190457 0 0)
(-0.00190458 0 0)
(-0.00190457 0 0)
(-0.00190458 0 0)
(-0.00190457 0 0)
(-0.00190457 0 0)
(-0.00190457 0 0)
(-0.00190457 0 0)
(-0.00190458 0 0)
(-0.00190457 0 0)
(-0.00190458 0 0)
(-0.00190457 0 0)
(-0.00190457 0 0)
(-0.00190457 0 0)
(-0.00190457 0 0)
(-0.00190457 0 0)
(-0.00190457 0 0)
(-0.00190457 0 0)
(-0.00190457 0 0)
(-0.00190457 0 0)
(-0.00190457 0 0)
(-0.00190457 0 0)
(-0.00190457 0 0)
(-0.00190457 0 0)
(-0.00190457 0 0)
(-0.00190457 0 0)
(-0.00190457 0 0)
(-0.00190457 0 0)
(-0.00190457 0 0)
(-0.00190457 0 0)
(-0.00190458 0 0)
(-0.00190457 0 0)
(-0.00190457 0 0)
(-0.00190457 0 0)
(-0.00190457 0 0)
(-0.00190457 0 0)
(-0.00190457 0 0)
(-0.00190457 0 0)
(-0.00190457 0 0)
(-0.00190457 0 0)
(-0.00190457 0 0)
(-0.00190457 0 0)
(-0.00190457 0 0)
(-0.00190457 0 0)
(-0.00190457 0 0)
(-0.00190457 0 0)
(-0.00190457 0 0)
(-0.00190457 0 0)
(-0.00190457 0 0)
(-0.00190457 0 0)
(-0.00190457 0 0)
(-0.00190457 0 0)
(-0.00190457 0 0)
(-0.00190457 0 0)
(-0.00190457 0 0)
(-0.00190457 0 0)
(-0.00190457 0 0)
(-0.00190457 0 0)
(-0.00190457 0 0)
(-0.00190457 0 0)
(-0.00190457 0 0)
(-0.00190457 0 0)
(-0.00190457 0 0)
(-0.00190457 0 0)
(-0.00190457 0 0)
(-0.00190457 0 0)
(-0.00190457 0 0)
(-0.00190457 0 0)
(-0.00190457 0 0)
(-0.00190456 0 0)
(-0.00190457 0 0)
(-0.00190456 0 0)
(-0.00190457 0 0)
(-0.00190456 0 0)
(-0.00190457 0 0)
(-0.00190456 0 0)
(-0.00190456 0 0)
(-0.00190456 0 0)
(-0.00190456 0 0)
(-0.00190456 0 0)
(-0.00190456 0 0)
(-0.00190456 0 0)
(-0.00190456 0 0)
(-0.00190456 0 0)
(-0.00190456 0 0)
(-0.00190455 0 0)
(-0.00190456 0 0)
(-0.00190455 0 0)
(-0.00190456 0 0)
(-0.00190455 0 0)
(-0.00190456 0 0)
(-0.00190455 0 0)
(-0.00190455 0 0)
(-0.00190455 0 0)
(-0.00190455 0 0)
(-0.00190455 0 0)
(-0.00190455 0 0)
(-0.00190455 0 0)
(-0.00190455 0 0)
(-0.00190454 0 0)
(-0.00190454 0 0)
(-0.00190454 0 0)
(-0.00190454 0 0)
(-0.00190454 0 0)
(-0.00190454 0 0)
(-0.00190454 0 0)
(-0.00190454 0 0)
(-0.00190454 0 0)
(-0.00190454 0 0)
(-0.00190453 0 0)
(-0.00190454 0 0)
(-0.00190453 0 0)
(-0.00190454 0 0)
(-0.00190453 0 0)
(-0.00190454 0 0)
(-0.00190453 0 0)
(-0.00190453 0 0)
(-0.00190453 0 0)
(-0.00190453 0 0)
(-0.00190453 0 0)
(-0.00190453 0 0)
(-0.00190453 0 0)
(-0.00190453 0 0)
(-0.00190453 0 0)
(-0.00190453 0 0)
(-0.00190453 0 0)
(-0.00190453 0 0)
(-0.00190453 0 0)
(-0.00190453 0 0)
(-0.00190453 0 0)
(-0.00190452 0 0)
(-0.00190453 0 0)
(-0.00190453 0 0)
(-0.00190452 0 0)
(-0.00190453 0 0)
(-0.00190452 0 0)
(-0.00190453 0 0)
(-0.00190452 0 0)
(-0.00190453 0 0)
(-0.00190453 0 0)
(-0.00190452 0 0)
(-0.00190453 0 0)
(-0.00190453 0 0)
(-0.00190453 0 0)
(-0.00190453 0 0)
(-0.00190453 0 0)
(-0.00190453 0 0)
(-0.00190453 0 0)
(-0.00190453 0 0)
(-0.00190453 0 0)
(-0.00190453 0 0)
(-0.00190453 0 0)
(-0.00190453 0 0)
(-0.00190453 0 0)
(-0.00190453 0 0)
(-0.00190453 0 0)
(-0.00190453 0 0)
(-0.00190453 0 0)
(-0.00190454 0 0)
(-0.00190453 0 0)
(-0.00190453 0 0)
(-0.00190453 0 0)
(-0.00190454 0 0)
(-0.00190453 0 0)
(-0.00190454 0 0)
(-0.00190454 0 0)
(-0.00190454 0 0)
(-0.00190454 0 0)
(-0.00190454 0 0)
(-0.00190454 0 0)
(-0.00190454 0 0)
(-0.00190454 0 0)
(-0.00190454 0 0)
(-0.00190454 0 0)
(-0.00190454 0 0)
(-0.00190454 0 0)
(-0.00190454 0 0)
(-0.00190454 0 0)
(-0.00190454 0 0)
(-0.00190455 0 0)
(-0.00190454 0 0)
(-0.00190455 0 0)
(-0.00190454 0 0)
(-0.00190454 0 0)
(-0.00190455 0 0)
(-0.00190454 0 0)
(-0.00190454 0 0)
(-0.00190454 0 0)
(-0.00190454 0 0)
(-0.00190454 0 0)
(-0.00190454 0 0)
(-0.00190454 0 0)
(-0.00190454 0 0)
(-0.00190454 0 0)
(-0.00190454 0 0)
(-0.00190454 0 0)
(-0.00190454 0 0)
(-0.00190454 0 0)
(-0.00190454 0 0)
(-0.00190453 0 0)
(-0.00190454 0 0)
(-0.00190453 0 0)
(-0.00190454 0 0)
(-0.00190453 0 0)
(-0.00190453 0 0)
(-0.00190453 0 0)
(-0.00190453 0 0)
(-0.00190453 0 0)
(-0.00190452 0 0)
(-0.00190453 0 0)
(-0.00190452 0 0)
(-0.00190452 0 0)
(-0.00190452 0 0)
(-0.00190452 0 0)
(-0.00190452 0 0)
(-0.00190451 0 0)
(-0.00190452 0 0)
(-0.00190451 0 0)
(-0.00190451 0 0)
(-0.00190451 0 0)
(-0.0019045 0 0)
(-0.00190451 0 0)
(-0.0019045 0 0)
(-0.0019045 0 0)
(-0.00190449 0 0)
(-0.0019045 0 0)
(-0.00190449 0 0)
(-0.00190449 0 0)
(-0.00190449 0 0)
(-0.00190448 0 0)
(-0.00190448 0 0)
(-0.00190448 0 0)
(-0.00190448 0 0)
(-0.00190448 0 0)
(-0.00190448 0 0)
(-0.00190447 0 0)
(-0.00190448 0 0)
(-0.00190447 0 0)
(-0.00190447 0 0)
(-0.00190447 0 0)
(-0.00190446 0 0)
(-0.00190446 0 0)
(-0.00190446 0 0)
(-0.00190445 0 0)
(-0.00190446 0 0)
(-0.00190445 0 0)
(-0.00190445 0 0)
(-0.00190445 0 0)
(-0.00190444 0 0)
(-0.00190445 0 0)
(-0.00190444 0 0)
(-0.00190445 0 0)
(-0.00190444 0 0)
(-0.00190444 0 0)
(-0.00190444 0 0)
(-0.00190444 0 0)
(-0.00190444 0 0)
(-0.00190444 0 0)
(-0.00190444 0 0)
(-0.00190443 0 0)
(-0.00190444 0 0)
(-0.00190443 0 0)
(-0.00190444 0 0)
(-0.00190444 0 0)
(-0.00190443 0 0)
(-0.00190444 0 0)
(-0.00190444 0 0)
(-0.00190444 0 0)
(-0.00190444 0 0)
(-0.00190444 0 0)
(-0.00190444 0 0)
(-0.00190444 0 0)
(-0.00190444 0 0)
(-0.00190445 0 0)
(-0.00190445 0 0)
(-0.00190445 0 0)
(-0.00190445 0 0)
(-0.00190445 0 0)
(-0.00190445 0 0)
(-0.00190445 0 0)
(-0.00190446 0 0)
(-0.00190446 0 0)
(-0.00190446 0 0)
(-0.00190446 0 0)
(-0.00190447 0 0)
(-0.00190447 0 0)
(-0.00190447 0 0)
(-0.00190447 0 0)
(-0.00190447 0 0)
(-0.00190448 0 0)
(-0.00190448 0 0)
(-0.00190448 0 0)
(-0.00190448 0 0)
(-0.00190449 0 0)
(-0.00190449 0 0)
(-0.00190449 0 0)
(-0.00190449 0 0)
(-0.0019045 0 0)
(-0.0019045 0 0)
(-0.0019045 0 0)
(-0.0019045 0 0)
(-0.0019045 0 0)
(-0.00190451 0 0)
(-0.00190451 0 0)
(-0.00190451 0 0)
(-0.00190451 0 0)
(-0.00190451 0 0)
(-0.00190452 0 0)
(-0.00190452 0 0)
(-0.00190452 0 0)
(-0.00190452 0 0)
(-0.00190452 0 0)
(-0.00190452 0 0)
(-0.00190452 0 0)
(-0.00190452 0 0)
(-0.00190452 0 0)
(-0.00190453 0 0)
(-0.00190452 0 0)
(-0.00190453 0 0)
(-0.00190452 0 0)
(-0.00190453 0 0)
(-0.00190452 0 0)
(-0.00190453 0 0)
(-0.00190452 0 0)
(-0.00190452 0 0)
(-0.00190453 0 0)
(-0.00190452 0 0)
(-0.00190452 0 0)
(-0.00190452 0 0)
(-0.00190452 0 0)
(-0.00190451 0 0)
(-0.00190451 0 0)
(-0.00190451 0 0)
(-0.00190451 0 0)
(-0.00190451 0 0)
(-0.00190451 0 0)
(-0.0019045 0 0)
(-0.0019045 0 0)
(-0.0019045 0 0)
(-0.0019045 0 0)
(-0.0019045 0 0)
(-0.00190449 0 0)
(-0.0019045 0 0)
(-0.00190449 0 0)
(-0.00190449 0 0)
(-0.00190449 0 0)
(-0.00190449 0 0)
(-0.00190449 0 0)
(-0.00190448 0 0)
(-0.00190448 0 0)
(-0.00190448 0 0)
(-0.00190448 0 0)
(-0.00190448 0 0)
(-0.00190448 0 0)
(-0.00190448 0 0)
(-0.00190449 0 0)
(-0.00190448 0 0)
(-0.00190449 0 0)
(-0.00190449 0 0)
(-0.00190449 0 0)
(-0.00190449 0 0)
(-0.0019045 0 0)
(-0.00190451 0 0)
(-0.00190451 0 0)
(-0.00190452 0 0)
(-0.00190453 0 0)
(-0.00190454 0 0)
(-0.00190455 0 0)
(-0.00190456 0 0)
(-0.00190458 0 0)
(-0.0019046 0 0)
(-0.00190462 0 0)
(-0.00190464 0 0)
(-0.00190466 0 0)
(-0.00190469 0 0)
(-0.00190472 0 0)
(-0.00190476 0 0)
(-0.0019048 0 0)
(-0.00190484 0 0)
(-0.00190489 0 0)
(-0.00190494 0 0)
(-0.001905 0 0)
(-0.00190507 0 0)
(-0.00190514 0 0)
(-0.00190522 0 0)
(-0.00190531 0 0)
(-0.00190541 0 0)
(-0.00190553 0 0)
(-0.00190565 0 0)
(-0.00190578 0 0)
(-0.00190593 0 0)
(-0.00190609 0 0)
(-0.00190627 0 0)
(-0.00190647 0 0)
(-0.00190669 0 0)
(-0.00190693 0 0)
(-0.00190719 0 0)
(-0.00190748 0 0)
(-0.0019078 0 0)
(-0.00190814 0 0)
(-0.00190852 0 0)
(-0.00190893 0 0)
(-0.00190938 0 0)
(-0.00190988 0 0)
(-0.00191041 0 0)
(-0.001911 0 0)
(-0.00191164 0 0)
(-0.00191233 0 0)
(-0.00191309 0 0)
(-0.00191391 0 0)
(-0.00191481 0 0)
(-0.00191578 0 0)
(-0.00191683 0 0)
(-0.00191797 0 0)
(-0.0019192 0 0)
(-0.00192054 0 0)
(-0.00192198 0 0)
(-0.00192354 0 0)
(-0.00192523 0 0)
(-0.00192705 0 0)
(-0.00192901 0 0)
(-0.00193112 0 0)
(-0.00193339 0 0)
(-0.00193584 0 0)
(-0.00193846 0 0)
(-0.00194128 0 0)
(-0.00194431 0 0)
(-0.00194755 0 0)
(-0.00195103 0 0)
(-0.00195475 0 0)
(-0.00195873 0 0)
(-0.00196298 0 0)
(-0.00196752 0 0)
(-0.00197236 0 0)
(-0.00197753 0 0)
(-0.00198302 0 0)
(-0.00198887 0 0)
(-0.0019951 0 0)
(-0.00200171 0 0)
(-0.00200872 0 0)
(-0.00201616 0 0)
(-0.00202405 0 0)
(-0.0020324 0 0)
(-0.00204123 0 0)
(-0.00205057 0 0)
(-0.00206042 0 0)
(-0.00207083 0 0)
(-0.00208179 0 0)
(-0.00209334 0 0)
(-0.0021055 0 0)
(-0.00211828 0 0)
(-0.0021317 0 0)
(-0.00214579 0 0)
(-0.00216056 0 0)
(-0.00217604 0 0)
(-0.00219224 0 0)
(-0.00220918 0 0)
(-0.00222688 0 0)
(-0.00224535 0 0)
(-0.00226461 0 0)
(-0.00228468 0 0)
(-0.00230556 0 0)
(-0.00232728 0 0)
(-0.00234983 0 0)
(-0.00237324 0 0)
(-0.00239751 0 0)
(-0.00242264 0 0)
(-0.00244865 0 0)
(-0.00247552 0 0)
(-0.00250326 0 0)
(-0.00253188 0 0)
(-0.00256136 0 0)
(-0.00259169 0 0)
(-0.00262287 0 0)
(-0.00265489 0 0)
(-0.00268772 0 0)
(-0.00272135 0 0)
(-0.00275575 0 0)
(-0.0027909 0 0)
(-0.00282676 0 0)
(-0.0028633 0 0)
(-0.00290049 0 0)
(-0.00293827 0 0)
(-0.0029766 0 0)
(-0.00301543 0 0)
(-0.0030547 0 0)
(-0.00309434 0 0)
(-0.00313429 0 0)
(-0.00317447 0 0)
(-0.00321479 0 0)
(-0.00325519 0 0)
(-0.00329555 0 0)
(-0.00333579 0 0)
(-0.00337578 0 0)
(-0.00341543 0 0)
(-0.0034546 0 0)
(-0.00349317 0 0)
(-0.00353099 0 0)
(-0.00356792 0 0)
(-0.0036038 0 0)
(-0.00363846 0 0)
(-0.00367173 0 0)
(-0.00370342 0 0)
(-0.0037334 0 0)
(-0.00376148 0 0)
(-0.0037873 0 0)
(-0.0038104 0 0)
(-0.00383051 0 0)
(-0.00384752 0 0)
(-0.00386122 0 0)
(-0.00387145 0 0)
(-0.00387753 0 0)
(-0.00387919 0 0)
(-0.00387601 0 0)
(-0.00386733 0 0)
(-0.00385286 0 0)
(-0.00383187 0 0)
(-0.00380387 0 0)
(-0.00376818 0 0)
(-0.0037241 0 0)
(-0.00367092 0 0)
(-0.00360783 0 0)
(-0.003534 0 0)
(-0.00344853 0 0)
(-0.00335048 0 0)
(-0.00323921 0 0)
(-0.00311442 0 0)
(-0.00297528 0 0)
(-0.00281392 0 0)
(-0.00261383 0 0)
(-0.00240977 0 0)
)
;

boundaryField
{
    fixedWall
    {
        type            fixedValue;
        value           uniform (0 0 0);
    }
    outlet
    {
        type            pressureInletOutletVelocity;
        value           uniform (-0.00240977 0 0);
    }
    defaultFaces
    {
        type            empty;
    }
}


// ************************************************************************* //
