/*--------------------------------*- C++ -*----------------------------------*\
| =========                 |                                                 |
| \\      /  F ield         | OpenFOAM: The Open Source CFD Toolbox           |
|  \\    /   O peration     | Version:  2406                                  |
|   \\  /    A nd           | Website:  www.openfoam.com                      |
|    \\/     M anipulation  |                                                 |
\*---------------------------------------------------------------------------*/
FoamFile
{
    version     2.0;
    format      ascii;
    arch        "LSB;label=32;scalar=64";
    class       volScalarField;
    location    "2.4";
    object      CO2;
}
// * * * * * * * * * * * * * * * * * * * * * * * * * * * * * * * * * * * * * //

dimensions      [0 0 0 0 0 0 0];

internalField   nonuniform List<scalar> 
1000
(
0.0709257
0.0709257
0.0709257
0.0709257
0.0709257
0.0709257
0.0709257
0.0709257
0.0709257
0.0709257
0.0709257
0.0709258
0.0709258
0.0709258
0.0709258
0.0709258
0.0709258
0.0709258
0.0709258
0.0709259
0.0709259
0.0709259
0.0709259
0.0709259
0.0709259
0.070926
0.070926
0.070926
0.070926
0.070926
0.070926
0.070926
0.0709261
0.0709261
0.0709261
0.0709261
0.0709261
0.0709261
0.0709261
0.0709261
0.0709261
0.0709261
0.0709262
0.0709262
0.0709262
0.0709262
0.0709262
0.0709262
0.0709262
0.0709262
0.0709262
0.0709262
0.0709262
0.0709262
0.0709262
0.0709262
0.0709262
0.0709262
0.0709262
0.0709262
0.0709262
0.0709262
0.0709262
0.0709262
0.0709262
0.0709262
0.0709262
0.0709262
0.0709262
0.0709262
0.0709262
0.0709262
0.0709262
0.0709262
0.0709262
0.0709262
0.0709262
0.0709262
0.0709262
0.0709262
0.0709262
0.0709262
0.0709262
0.0709261
0.0709261
0.0709261
0.0709261
0.0709261
0.0709261
0.0709261
0.0709261
0.0709261
0.0709261
0.0709261
0.0709261
0.0709261
0.0709261
0.0709261
0.0709261
0.0709261
0.0709261
0.0709261
0.0709261
0.0709261
0.0709261
0.0709261
0.0709261
0.0709261
0.0709261
0.0709261
0.0709261
0.0709261
0.0709261
0.0709261
0.0709261
0.0709261
0.070926
0.070926
0.070926
0.070926
0.070926
0.070926
0.070926
0.070926
0.070926
0.070926
0.070926
0.070926
0.070926
0.070926
0.070926
0.070926
0.070926
0.070926
0.070926
0.070926
0.070926
0.070926
0.070926
0.070926
0.070926
0.070926
0.070926
0.070926
0.0709259
0.0709259
0.0709259
0.0709259
0.0709259
0.0709259
0.0709259
0.0709259
0.0709259
0.0709259
0.0709259
0.0709259
0.0709259
0.0709259
0.0709259
0.0709259
0.0709259
0.0709259
0.0709259
0.0709259
0.0709259
0.0709259
0.0709258
0.0709258
0.0709258
0.0709258
0.0709258
0.0709258
0.0709258
0.0709258
0.0709258
0.0709258
0.0709258
0.0709258
0.0709258
0.0709258
0.0709258
0.0709258
0.0709258
0.0709258
0.0709257
0.0709257
0.0709257
0.0709257
0.0709257
0.0709257
0.0709257
0.0709257
0.0709257
0.0709257
0.0709257
0.0709257
0.0709257
0.0709257
0.0709257
0.0709256
0.0709256
0.0709256
0.0709256
0.0709256
0.0709256
0.0709256
0.0709256
0.0709256
0.0709256
0.0709256
0.0709256
0.0709256
0.0709255
0.0709255
0.0709255
0.0709255
0.0709255
0.0709255
0.0709255
0.0709255
0.0709255
0.0709255
0.0709255
0.0709254
0.0709254
0.0709254
0.0709254
0.0709254
0.0709254
0.0709254
0.0709254
0.0709254
0.0709254
0.0709253
0.0709253
0.0709253
0.0709253
0.0709253
0.0709253
0.0709253
0.0709253
0.0709252
0.0709252
0.0709252
0.0709252
0.0709252
0.0709252
0.0709252
0.0709252
0.0709251
0.0709251
0.0709251
0.0709251
0.0709251
0.0709251
0.070925
0.070925
0.070925
0.070925
0.070925
0.070925
0.0709249
0.0709249
0.0709249
0.0709249
0.0709249
0.0709248
0.0709248
0.0709248
0.0709248
0.0709248
0.0709247
0.0709247
0.0709247
0.0709247
0.0709247
0.0709246
0.0709246
0.0709246
0.0709246
0.0709245
0.0709245
0.0709245
0.0709244
0.0709244
0.0709244
0.0709244
0.0709243
0.0709243
0.0709243
0.0709242
0.0709242
0.0709242
0.0709241
0.0709241
0.0709241
0.070924
0.070924
0.0709239
0.0709239
0.0709238
0.0709238
0.0709238
0.0709237
0.0709237
0.0709236
0.0709236
0.0709235
0.0709235
0.0709234
0.0709233
0.0709233
0.0709232
0.0709231
0.0709231
0.070923
0.0709229
0.0709229
0.0709228
0.0709227
0.0709226
0.0709225
0.0709224
0.0709223
0.0709222
0.0709221
0.070922
0.0709219
0.0709218
0.0709217
0.0709215
0.0709214
0.0709213
0.0709211
0.0709209
0.0709208
0.0709206
0.0709204
0.0709202
0.07092
0.0709197
0.0709195
0.0709192
0.0709189
0.0709186
0.0709183
0.0709179
0.0709176
0.0709171
0.0709167
0.0709162
0.0709156
0.070915
0.0709143
0.0709135
0.0709127
0.0709117
0.0709106
0.0709093
0.0709079
0.0709062
0.0709042
0.0709018
0.070899
0.0708953
0.0708907
0.0708846
0.0708761
0.0708639
0.0708453
0.0708145
0.0707571
0.0706321
0.0703094
0.069346
0.0661267
0.0531038
0.0274148
0.0138864
0.0070054
0.00352371
0.001768
0.000885377
0.0004428
0.000221285
0.000110541
5.52106e-05
2.75733e-05
1.377e-05
6.87624e-06
3.43341e-06
1.71414e-06
8.55667e-07
4.27083e-07
2.13154e-07
1.06386e-07
5.31212e-08
2.65318e-08
1.32975e-08
6.65808e-09
3.3584e-09
1.76069e-09
9.14857e-10
6.27133e-10
4.03144e-10
2.48791e-10
1.77167e-10
1.4476e-10
1.21775e-10
1.08761e-10
1.04413e-10
1.01254e-10
9.96688e-11
9.86794e-11
9.7884e-11
9.75097e-11
9.73485e-11
9.72324e-11
9.71257e-11
9.70786e-11
9.70571e-11
9.70451e-11
9.70373e-11
9.7033e-11
9.70291e-11
9.70275e-11
9.70266e-11
9.70262e-11
9.7026e-11
9.7026e-11
9.7026e-11
9.70261e-11
9.70263e-11
9.70264e-11
9.70265e-11
9.70268e-11
9.70269e-11
9.70271e-11
9.70274e-11
9.70275e-11
9.70277e-11
9.70279e-11
9.70281e-11
9.70283e-11
9.70284e-11
9.70286e-11
9.70288e-11
9.7029e-11
9.70292e-11
9.70295e-11
9.70296e-11
9.70298e-11
9.703e-11
9.70302e-11
9.70304e-11
9.70306e-11
9.70308e-11
9.70309e-11
9.70311e-11
9.70313e-11
9.70315e-11
9.70317e-11
9.70319e-11
9.70321e-11
9.70324e-11
9.70325e-11
9.70327e-11
9.70329e-11
9.70331e-11
9.70333e-11
9.70334e-11
9.70336e-11
9.70338e-11
9.7034e-11
9.70342e-11
9.70344e-11
9.70346e-11
9.70348e-11
9.7035e-11
9.70351e-11
9.70352e-11
9.70355e-11
9.70357e-11
9.70359e-11
9.70361e-11
9.70362e-11
9.70364e-11
9.70367e-11
9.70368e-11
9.7037e-11
9.70372e-11
9.70374e-11
9.70375e-11
9.70378e-11
9.70379e-11
9.70382e-11
9.70385e-11
9.70386e-11
9.70389e-11
9.7039e-11
9.70392e-11
9.70394e-11
9.70396e-11
9.70398e-11
9.70399e-11
9.70401e-11
9.70403e-11
9.70405e-11
9.70407e-11
9.70409e-11
9.70411e-11
9.70413e-11
9.70414e-11
9.70416e-11
9.70418e-11
9.7042e-11
9.70422e-11
9.70424e-11
9.70426e-11
9.70428e-11
9.7043e-11
9.70432e-11
9.70434e-11
9.70435e-11
9.70437e-11
9.70439e-11
9.70441e-11
9.70443e-11
9.70445e-11
9.70447e-11
9.70449e-11
9.70451e-11
9.70453e-11
9.70455e-11
9.70456e-11
9.70458e-11
9.70461e-11
9.70462e-11
9.70464e-11
9.70467e-11
9.70468e-11
9.7047e-11
9.70472e-11
9.70473e-11
9.70476e-11
9.70478e-11
9.7048e-11
9.70482e-11
9.70484e-11
9.70486e-11
9.70488e-11
9.7049e-11
9.70493e-11
9.70494e-11
9.70496e-11
9.70498e-11
9.705e-11
9.70502e-11
9.70503e-11
9.70506e-11
9.70507e-11
9.7051e-11
9.70511e-11
9.70514e-11
9.70516e-11
9.70518e-11
9.7052e-11
9.70522e-11
9.70524e-11
9.70526e-11
9.70527e-11
9.7053e-11
9.70531e-11
9.70534e-11
9.70536e-11
9.70538e-11
9.70539e-11
9.70541e-11
9.70543e-11
9.70545e-11
9.70547e-11
9.70549e-11
9.70551e-11
9.70553e-11
9.70555e-11
9.70557e-11
9.70559e-11
9.70561e-11
9.70563e-11
9.70565e-11
9.70567e-11
9.70569e-11
9.70571e-11
9.70573e-11
9.70575e-11
9.70577e-11
9.70579e-11
9.70581e-11
9.70582e-11
9.70584e-11
9.70587e-11
9.70589e-11
9.70591e-11
9.70593e-11
9.70594e-11
9.70597e-11
9.70599e-11
9.70601e-11
9.70603e-11
9.70605e-11
9.70607e-11
9.7061e-11
9.70612e-11
9.70615e-11
9.70617e-11
9.70619e-11
9.70622e-11
9.70623e-11
9.70625e-11
9.70627e-11
9.70629e-11
9.70631e-11
9.70633e-11
9.70635e-11
9.70637e-11
9.70639e-11
9.7064e-11
9.70643e-11
9.70645e-11
9.70647e-11
9.70649e-11
9.70651e-11
9.70653e-11
9.70655e-11
9.70657e-11
9.70659e-11
9.70661e-11
9.70664e-11
9.70666e-11
9.70667e-11
9.70669e-11
9.70672e-11
9.70674e-11
9.70675e-11
9.70678e-11
9.70679e-11
9.70681e-11
9.70684e-11
9.70685e-11
9.70688e-11
9.70691e-11
9.70692e-11
9.70694e-11
9.70696e-11
9.70698e-11
9.70701e-11
9.70704e-11
9.70706e-11
9.70707e-11
9.7071e-11
9.70712e-11
9.70714e-11
9.70715e-11
9.70718e-11
9.70721e-11
9.70723e-11
9.70725e-11
9.70726e-11
9.70728e-11
9.7073e-11
9.70733e-11
9.70735e-11
9.70736e-11
9.70738e-11
9.7074e-11
9.70743e-11
9.70744e-11
9.70746e-11
9.70749e-11
9.70751e-11
9.70753e-11
9.70756e-11
9.70758e-11
9.70759e-11
9.70762e-11
9.70764e-11
9.70767e-11
9.70769e-11
9.70772e-11
9.70773e-11
9.70775e-11
9.70777e-11
9.70779e-11
9.70781e-11
9.70784e-11
9.70785e-11
9.70788e-11
9.70789e-11
9.70791e-11
9.70794e-11
9.70795e-11
9.70797e-11
9.708e-11
9.70801e-11
9.70804e-11
9.70807e-11
9.70809e-11
9.70811e-11
9.70813e-11
9.70815e-11
9.70818e-11
9.7082e-11
9.70821e-11
9.70824e-11
9.70826e-11
9.70828e-11
9.7083e-11
9.70832e-11
9.70835e-11
9.70837e-11
9.70839e-11
9.70841e-11
9.70843e-11
9.70845e-11
9.70848e-11
9.7085e-11
9.70852e-11
9.70853e-11
9.70856e-11
9.70858e-11
9.7086e-11
9.70863e-11
9.70865e-11
9.70867e-11
9.70869e-11
9.70871e-11
9.70873e-11
9.70875e-11
9.70877e-11
9.7088e-11
9.70882e-11
9.70884e-11
9.70886e-11
9.70888e-11
9.70891e-11
9.70893e-11
9.70895e-11
9.70896e-11
9.70899e-11
9.70901e-11
9.70904e-11
9.70906e-11
9.70908e-11
9.7091e-11
9.70912e-11
9.70914e-11
9.70917e-11
9.70918e-11
9.70921e-11
9.70922e-11
9.70925e-11
9.70927e-11
9.70929e-11
9.70932e-11
9.70934e-11
9.70936e-11
9.70937e-11
9.7094e-11
9.70942e-11
9.70945e-11
9.70947e-11
9.70948e-11
9.70951e-11
9.70954e-11
9.70956e-11
9.70957e-11
9.7096e-11
9.70962e-11
9.70964e-11
9.70966e-11
9.70968e-11
9.7097e-11
9.70973e-11
9.70975e-11
9.70977e-11
9.70979e-11
9.70981e-11
9.70984e-11
9.70985e-11
9.70988e-11
9.7099e-11
9.70992e-11
9.70994e-11
9.70997e-11
9.70999e-11
9.71001e-11
9.71003e-11
9.71005e-11
9.71008e-11
9.7101e-11
9.71012e-11
9.71014e-11
9.71016e-11
9.71018e-11
9.7102e-11
9.71023e-11
9.71025e-11
9.71028e-11
9.7103e-11
9.71032e-11
9.71035e-11
9.71037e-11
9.71039e-11
9.71041e-11
9.71043e-11
9.71046e-11
9.71048e-11
9.7105e-11
9.71052e-11
9.71054e-11
9.71056e-11
9.71059e-11
9.7106e-11
9.71063e-11
9.71065e-11
9.71067e-11
9.71069e-11
9.71071e-11
9.71073e-11
9.71075e-11
9.71078e-11
9.7108e-11
9.71082e-11
9.71085e-11
9.71086e-11
9.71089e-11
9.71091e-11
9.71094e-11
9.71097e-11
9.71099e-11
9.71101e-11
9.71103e-11
9.71106e-11
9.71108e-11
9.7111e-11
9.71112e-11
9.71114e-11
9.71116e-11
9.71118e-11
9.71121e-11
9.71123e-11
9.71125e-11
9.71127e-11
9.71129e-11
9.71131e-11
9.71133e-11
9.71135e-11
9.71138e-11
9.7114e-11
9.71142e-11
9.71144e-11
9.71146e-11
9.71148e-11
9.71151e-11
9.71153e-11
9.71155e-11
9.71158e-11
9.71159e-11
9.71162e-11
9.71164e-11
9.71167e-11
9.71169e-11
9.71171e-11
9.71173e-11
9.71175e-11
9.71177e-11
9.71182e-11
9.71184e-11
9.71186e-11
9.71188e-11
9.71191e-11
9.71193e-11
9.71195e-11
9.71198e-11
9.712e-11
9.71202e-11
9.71204e-11
9.71207e-11
9.71209e-11
9.71211e-11
9.71212e-11
9.71215e-11
9.71217e-11
9.7122e-11
9.71222e-11
9.71224e-11
9.71226e-11
9.71228e-11
9.71231e-11
9.71233e-11
9.71235e-11
9.71237e-11
9.71238e-11
9.71242e-11
9.71244e-11
9.71246e-11
9.71248e-11
9.7125e-11
9.71252e-11
9.71255e-11
9.71257e-11
9.71259e-11
9.71262e-11
9.71264e-11
9.71266e-11
9.71268e-11
9.7127e-11
9.71274e-11
9.71276e-11
9.71278e-11
9.7128e-11
9.71283e-11
9.71284e-11
9.71287e-11
9.71289e-11
9.71291e-11
9.71294e-11
9.71296e-11
9.71297e-11
9.71301e-11
9.71302e-11
9.71305e-11
9.71307e-11
9.7131e-11
9.71313e-11
9.71315e-11
9.71317e-11
9.7132e-11
9.71322e-11
9.71324e-11
9.71326e-11
9.71329e-11
9.71332e-11
9.71334e-11
9.71337e-11
9.71338e-11
9.7134e-11
9.71343e-11
9.71345e-11
9.71348e-11
9.71351e-11
9.71353e-11
9.71355e-11
9.71358e-11
9.7136e-11
9.71361e-11
9.71363e-11
9.71366e-11
9.71368e-11
9.7137e-11
9.71373e-11
9.71375e-11
9.71377e-11
9.7138e-11
9.71381e-11
9.71384e-11
9.71386e-11
9.71388e-11
9.71391e-11
9.71394e-11
9.71396e-11
9.71398e-11
9.714e-11
9.71402e-11
9.71405e-11
9.71408e-11
9.7141e-11
9.71412e-11
9.71414e-11
9.71416e-11
9.71419e-11
9.71422e-11
9.71424e-11
9.71426e-11
9.71428e-11
9.71431e-11
9.71432e-11
9.71435e-11
9.71438e-11
9.7144e-11
9.71443e-11
9.71445e-11
9.71447e-11
9.71449e-11
9.71452e-11
9.71454e-11
9.71456e-11
9.71458e-11
9.71462e-11
9.71464e-11
)
;

boundaryField
{
    fixedWall
    {
        type            zeroGradient;
    }
    outlet
    {
        type            inletOutlet;
        inletValue      uniform 0;
        value           uniform 9.71464e-11;
    }
    defaultFaces
    {
        type            empty;
    }
}


// ************************************************************************* //
