/*--------------------------------*- C++ -*----------------------------------*\
| =========                 |                                                 |
| \\      /  F ield         | OpenFOAM: The Open Source CFD Toolbox           |
|  \\    /   O peration     | Version:  2406                                  |
|   \\  /    A nd           | Website:  www.openfoam.com                      |
|    \\/     M anipulation  |                                                 |
\*---------------------------------------------------------------------------*/
FoamFile
{
    version     2.0;
    format      ascii;
    arch        "LSB;label=32;scalar=64";
    class       volScalarField;
    location    "2.4";
    object      H2O;
}
// * * * * * * * * * * * * * * * * * * * * * * * * * * * * * * * * * * * * * //

dimensions      [0 0 0 0 0 0 0];

internalField   nonuniform List<scalar> 
1000
(
0.0580662
0.0580662
0.0580662
0.0580662
0.0580662
0.0580662
0.0580663
0.0580663
0.0580663
0.0580663
0.0580663
0.0580663
0.0580663
0.0580663
0.0580663
0.0580663
0.0580663
0.0580664
0.0580664
0.0580664
0.0580664
0.0580664
0.0580664
0.0580664
0.0580664
0.0580665
0.0580665
0.0580665
0.0580665
0.0580665
0.0580665
0.0580665
0.0580665
0.0580666
0.0580666
0.0580666
0.0580666
0.0580666
0.0580666
0.0580666
0.0580666
0.0580666
0.0580666
0.0580666
0.0580666
0.0580666
0.0580666
0.0580666
0.0580666
0.0580666
0.0580666
0.0580666
0.0580666
0.0580667
0.0580667
0.0580667
0.0580667
0.0580667
0.0580667
0.0580667
0.0580667
0.0580667
0.0580666
0.0580666
0.0580666
0.0580666
0.0580666
0.0580666
0.0580666
0.0580666
0.0580666
0.0580666
0.0580666
0.0580666
0.0580666
0.0580666
0.0580666
0.0580666
0.0580666
0.0580666
0.0580666
0.0580666
0.0580666
0.0580666
0.0580666
0.0580666
0.0580666
0.0580666
0.0580666
0.0580666
0.0580666
0.0580666
0.0580666
0.0580666
0.0580666
0.0580666
0.0580666
0.0580666
0.0580666
0.0580666
0.0580666
0.0580666
0.0580666
0.0580666
0.0580666
0.0580666
0.0580666
0.0580666
0.0580666
0.0580666
0.0580665
0.0580665
0.0580665
0.0580665
0.0580665
0.0580665
0.0580665
0.0580665
0.0580665
0.0580665
0.0580665
0.0580665
0.0580665
0.0580665
0.0580665
0.0580665
0.0580665
0.0580665
0.0580665
0.0580665
0.0580665
0.0580665
0.0580665
0.0580665
0.0580665
0.0580665
0.0580665
0.0580665
0.0580665
0.0580665
0.0580665
0.0580665
0.0580665
0.0580665
0.0580664
0.0580664
0.0580664
0.0580664
0.0580664
0.0580664
0.0580664
0.0580664
0.0580664
0.0580664
0.0580664
0.0580664
0.0580664
0.0580664
0.0580664
0.0580664
0.0580664
0.0580664
0.0580664
0.0580664
0.0580664
0.0580664
0.0580664
0.0580664
0.0580664
0.0580664
0.0580664
0.0580663
0.0580663
0.0580663
0.0580663
0.0580663
0.0580663
0.0580663
0.0580663
0.0580663
0.0580663
0.0580663
0.0580663
0.0580663
0.0580663
0.0580663
0.0580663
0.0580663
0.0580663
0.0580663
0.0580663
0.0580662
0.0580662
0.0580662
0.0580662
0.0580662
0.0580662
0.0580662
0.0580662
0.0580662
0.0580662
0.0580662
0.0580662
0.0580662
0.0580662
0.0580662
0.0580662
0.0580662
0.0580661
0.0580661
0.0580661
0.0580661
0.0580661
0.0580661
0.0580661
0.0580661
0.0580661
0.0580661
0.0580661
0.0580661
0.0580661
0.0580661
0.058066
0.058066
0.058066
0.058066
0.058066
0.058066
0.058066
0.058066
0.058066
0.058066
0.058066
0.058066
0.0580659
0.0580659
0.0580659
0.0580659
0.0580659
0.0580659
0.0580659
0.0580659
0.0580659
0.0580659
0.0580658
0.0580658
0.0580658
0.0580658
0.0580658
0.0580658
0.0580658
0.0580658
0.0580657
0.0580657
0.0580657
0.0580657
0.0580657
0.0580657
0.0580657
0.0580657
0.0580656
0.0580656
0.0580656
0.0580656
0.0580656
0.0580656
0.0580655
0.0580655
0.0580655
0.0580655
0.0580655
0.0580655
0.0580654
0.0580654
0.0580654
0.0580654
0.0580654
0.0580654
0.0580653
0.0580653
0.0580653
0.0580653
0.0580652
0.0580652
0.0580652
0.0580652
0.0580651
0.0580651
0.0580651
0.0580651
0.058065
0.058065
0.058065
0.058065
0.0580649
0.0580649
0.0580649
0.0580648
0.0580648
0.0580648
0.0580647
0.0580647
0.0580647
0.0580646
0.0580646
0.0580645
0.0580645
0.0580645
0.0580644
0.0580644
0.0580643
0.0580643
0.0580642
0.0580642
0.0580641
0.058064
0.058064
0.0580639
0.0580639
0.0580638
0.0580637
0.0580637
0.0580636
0.0580635
0.0580634
0.0580633
0.0580632
0.0580631
0.0580631
0.0580629
0.0580628
0.0580627
0.0580626
0.0580625
0.0580623
0.0580622
0.0580621
0.0580619
0.0580617
0.0580616
0.0580614
0.0580612
0.0580609
0.0580607
0.0580605
0.0580602
0.0580599
0.0580596
0.0580592
0.0580589
0.0580584
0.058058
0.0580575
0.0580569
0.0580563
0.0580556
0.0580548
0.0580539
0.0580529
0.0580517
0.0580503
0.0580487
0.0580467
0.0580443
0.0580414
0.0580376
0.0580326
0.0580257
0.0580157
0.0580004
0.0579752
0.0579282
0.0578259
0.0575616
0.056773
0.0541373
0.0434756
0.0224443
0.0113687
0.00573526
0.00288483
0.00144745
0.00072485
0.000362516
0.000181164
9.04993e-05
4.52004e-05
2.2574e-05
1.12734e-05
5.62951e-06
2.8109e-06
1.40335e-06
7.00527e-07
3.49649e-07
1.74507e-07
8.70971e-08
4.34899e-08
2.17213e-08
1.08866e-08
5.45091e-09
2.74949e-09
1.44146e-09
7.48985e-10
5.13429e-10
3.3005e-10
2.03683e-10
1.45045e-10
1.18514e-10
9.9696e-11
8.90418e-11
8.54817e-11
8.28962e-11
8.1598e-11
8.0788e-11
8.01368e-11
7.98303e-11
7.96984e-11
7.96033e-11
7.9516e-11
7.94774e-11
7.94598e-11
7.945e-11
7.94436e-11
7.94401e-11
7.94369e-11
7.94356e-11
7.94348e-11
7.94345e-11
7.94344e-11
7.94343e-11
7.94343e-11
7.94344e-11
7.94346e-11
7.94347e-11
7.94348e-11
7.9435e-11
7.94351e-11
7.94352e-11
7.94355e-11
7.94356e-11
7.94357e-11
7.94359e-11
7.94361e-11
7.94362e-11
7.94363e-11
7.94365e-11
7.94366e-11
7.94368e-11
7.9437e-11
7.94372e-11
7.94373e-11
7.94374e-11
7.94376e-11
7.94378e-11
7.94379e-11
7.94381e-11
7.94382e-11
7.94384e-11
7.94385e-11
7.94386e-11
7.94389e-11
7.9439e-11
7.94391e-11
7.94393e-11
7.94395e-11
7.94396e-11
7.94398e-11
7.944e-11
7.94401e-11
7.94403e-11
7.94404e-11
7.94405e-11
7.94407e-11
7.94409e-11
7.9441e-11
7.94412e-11
7.94414e-11
7.94415e-11
7.94417e-11
7.94418e-11
7.94419e-11
7.94421e-11
7.94423e-11
7.94424e-11
7.94426e-11
7.94427e-11
7.94428e-11
7.94431e-11
7.94432e-11
7.94434e-11
7.94435e-11
7.94436e-11
7.94438e-11
7.9444e-11
7.94441e-11
7.94443e-11
7.94445e-11
7.94446e-11
7.94449e-11
7.9445e-11
7.94452e-11
7.94453e-11
7.94455e-11
7.94456e-11
7.94457e-11
7.94459e-11
7.9446e-11
7.94462e-11
7.94464e-11
7.94465e-11
7.94467e-11
7.94468e-11
7.9447e-11
7.94471e-11
7.94473e-11
7.94474e-11
7.94476e-11
7.94478e-11
7.94479e-11
7.94481e-11
7.94483e-11
7.94484e-11
7.94486e-11
7.94487e-11
7.94488e-11
7.9449e-11
7.94492e-11
7.94493e-11
7.94494e-11
7.94497e-11
7.94498e-11
7.945e-11
7.94501e-11
7.94503e-11
7.94504e-11
7.94505e-11
7.94508e-11
7.94509e-11
7.94511e-11
7.94512e-11
7.94514e-11
7.94515e-11
7.94517e-11
7.94518e-11
7.9452e-11
7.94522e-11
7.94524e-11
7.94525e-11
7.94527e-11
7.94529e-11
7.9453e-11
7.94532e-11
7.94534e-11
7.94535e-11
7.94537e-11
7.94538e-11
7.9454e-11
7.94541e-11
7.94542e-11
7.94544e-11
7.94546e-11
7.94548e-11
7.94549e-11
7.94551e-11
7.94553e-11
7.94554e-11
7.94556e-11
7.94558e-11
7.94559e-11
7.94561e-11
7.94562e-11
7.94564e-11
7.94565e-11
7.94568e-11
7.94569e-11
7.94571e-11
7.94572e-11
7.94574e-11
7.94575e-11
7.94577e-11
7.94579e-11
7.9458e-11
7.94582e-11
7.94583e-11
7.94585e-11
7.94587e-11
7.94588e-11
7.9459e-11
7.94592e-11
7.94593e-11
7.94595e-11
7.94597e-11
7.94598e-11
7.946e-11
7.94601e-11
7.94603e-11
7.94604e-11
7.94606e-11
7.94607e-11
7.94608e-11
7.94611e-11
7.94613e-11
7.94614e-11
7.94616e-11
7.94617e-11
7.94619e-11
7.94621e-11
7.94623e-11
7.94624e-11
7.94626e-11
7.94628e-11
7.9463e-11
7.94631e-11
7.94634e-11
7.94635e-11
7.94638e-11
7.94639e-11
7.94641e-11
7.94642e-11
7.94644e-11
7.94645e-11
7.94647e-11
7.94648e-11
7.94651e-11
7.94652e-11
7.94653e-11
7.94655e-11
7.94657e-11
7.94658e-11
7.9466e-11
7.94661e-11
7.94663e-11
7.94665e-11
7.94667e-11
7.94669e-11
7.9467e-11
7.94672e-11
7.94674e-11
7.94675e-11
7.94676e-11
7.94678e-11
7.9468e-11
7.94682e-11
7.94683e-11
7.94685e-11
7.94687e-11
7.94688e-11
7.9469e-11
7.94691e-11
7.94694e-11
7.94696e-11
7.94697e-11
7.94698e-11
7.947e-11
7.94702e-11
7.94705e-11
7.94707e-11
7.94708e-11
7.9471e-11
7.94712e-11
7.94713e-11
7.94715e-11
7.94716e-11
7.94718e-11
7.9472e-11
7.94722e-11
7.94724e-11
7.94725e-11
7.94727e-11
7.94728e-11
7.94731e-11
7.94732e-11
7.94733e-11
7.94735e-11
7.94736e-11
7.94739e-11
7.9474e-11
7.94742e-11
7.94743e-11
7.94745e-11
7.94747e-11
7.94749e-11
7.94751e-11
7.94752e-11
7.94755e-11
7.94756e-11
7.94759e-11
7.9476e-11
7.94762e-11
7.94763e-11
7.94765e-11
7.94766e-11
7.94768e-11
7.9477e-11
7.94772e-11
7.94773e-11
7.94775e-11
7.94777e-11
7.94778e-11
7.9478e-11
7.94782e-11
7.94783e-11
7.94785e-11
7.94786e-11
7.94789e-11
7.94791e-11
7.94792e-11
7.94794e-11
7.94796e-11
7.94798e-11
7.948e-11
7.94802e-11
7.94803e-11
7.94805e-11
7.94807e-11
7.94808e-11
7.9481e-11
7.94812e-11
7.94814e-11
7.94815e-11
7.94817e-11
7.94819e-11
7.9482e-11
7.94822e-11
7.94824e-11
7.94826e-11
7.94828e-11
7.94829e-11
7.94831e-11
7.94833e-11
7.94834e-11
7.94837e-11
7.94838e-11
7.9484e-11
7.94842e-11
7.94844e-11
7.94845e-11
7.94847e-11
7.94848e-11
7.94851e-11
7.94852e-11
7.94854e-11
7.94856e-11
7.94857e-11
7.9486e-11
7.94861e-11
7.94863e-11
7.94864e-11
7.94866e-11
7.94868e-11
7.94871e-11
7.94872e-11
7.94874e-11
7.94876e-11
7.94877e-11
7.94879e-11
7.94881e-11
7.94882e-11
7.94884e-11
7.94886e-11
7.94888e-11
7.9489e-11
7.94891e-11
7.94894e-11
7.94895e-11
7.94897e-11
7.94898e-11
7.949e-11
7.94902e-11
7.94904e-11
7.94905e-11
7.94907e-11
7.94909e-11
7.94911e-11
7.94913e-11
7.94914e-11
7.94917e-11
7.94918e-11
7.9492e-11
7.94921e-11
7.94923e-11
7.94925e-11
7.94927e-11
7.94929e-11
7.9493e-11
7.94932e-11
7.94934e-11
7.94936e-11
7.94937e-11
7.94939e-11
7.94941e-11
7.94942e-11
7.94945e-11
7.94947e-11
7.94948e-11
7.9495e-11
7.94952e-11
7.94953e-11
7.94956e-11
7.94957e-11
7.94959e-11
7.9496e-11
7.94962e-11
7.94964e-11
7.94966e-11
7.94968e-11
7.94969e-11
7.94972e-11
7.94974e-11
7.94975e-11
7.94978e-11
7.9498e-11
7.94981e-11
7.94983e-11
7.94984e-11
7.94987e-11
7.94988e-11
7.9499e-11
7.94992e-11
7.94994e-11
7.94995e-11
7.94997e-11
7.94999e-11
7.95e-11
7.95002e-11
7.95004e-11
7.95006e-11
7.95008e-11
7.95009e-11
7.95011e-11
7.95013e-11
7.95015e-11
7.95017e-11
7.95018e-11
7.9502e-11
7.95022e-11
7.95024e-11
7.95026e-11
7.95028e-11
7.9503e-11
7.95032e-11
7.95034e-11
7.95036e-11
7.95037e-11
7.95039e-11
7.95041e-11
7.95043e-11
7.95044e-11
7.95046e-11
7.95048e-11
7.9505e-11
7.95052e-11
7.95053e-11
7.95055e-11
7.95056e-11
7.95058e-11
7.9506e-11
7.95062e-11
7.95064e-11
7.95065e-11
7.95067e-11
7.95068e-11
7.9507e-11
7.95073e-11
7.95075e-11
7.95076e-11
7.95078e-11
7.9508e-11
7.95082e-11
7.95084e-11
7.95086e-11
7.95088e-11
7.95089e-11
7.9509e-11
7.95092e-11
7.95094e-11
7.95098e-11
7.951e-11
7.95101e-11
7.95103e-11
7.95105e-11
7.95107e-11
7.95109e-11
7.95111e-11
7.95113e-11
7.95115e-11
7.95117e-11
7.95118e-11
7.9512e-11
7.95122e-11
7.95123e-11
7.95125e-11
7.95127e-11
7.95129e-11
7.95131e-11
7.95133e-11
7.95134e-11
7.95136e-11
7.95138e-11
7.9514e-11
7.95142e-11
7.95143e-11
7.95144e-11
7.95147e-11
7.95149e-11
7.9515e-11
7.95152e-11
7.95154e-11
7.95155e-11
7.95158e-11
7.95159e-11
7.95161e-11
7.95164e-11
7.95165e-11
7.95167e-11
7.95169e-11
7.9517e-11
7.95173e-11
7.95175e-11
7.95177e-11
7.95178e-11
7.95181e-11
7.95182e-11
7.95184e-11
7.95185e-11
7.95187e-11
7.95189e-11
7.95191e-11
7.95193e-11
7.95195e-11
7.95197e-11
7.95199e-11
7.95201e-11
7.95203e-11
7.95205e-11
7.95207e-11
7.95209e-11
7.95211e-11
7.95212e-11
7.95215e-11
7.95216e-11
7.95218e-11
7.95221e-11
7.95223e-11
7.95225e-11
7.95226e-11
7.95228e-11
7.9523e-11
7.95232e-11
7.95234e-11
7.95236e-11
7.95238e-11
7.9524e-11
7.95242e-11
7.95244e-11
7.95245e-11
7.95246e-11
7.95249e-11
7.9525e-11
7.95252e-11
7.95254e-11
7.95256e-11
7.95258e-11
7.9526e-11
7.95261e-11
7.95264e-11
7.95265e-11
7.95267e-11
7.95269e-11
7.95272e-11
7.95273e-11
7.95275e-11
7.95277e-11
7.95279e-11
7.95281e-11
7.95283e-11
7.95285e-11
7.95286e-11
7.95288e-11
7.9529e-11
7.95292e-11
7.95295e-11
7.95296e-11
7.95298e-11
7.953e-11
7.95302e-11
7.95303e-11
7.95306e-11
7.95308e-11
7.95309e-11
7.95312e-11
7.95313e-11
7.95315e-11
7.95317e-11
7.95319e-11
7.95321e-11
7.95323e-11
7.95324e-11
7.95327e-11
7.95329e-11
)
;

boundaryField
{
    fixedWall
    {
        type            zeroGradient;
    }
    outlet
    {
        type            inletOutlet;
        inletValue      uniform 0;
        value           uniform 7.95329e-11;
    }
    defaultFaces
    {
        type            empty;
    }
}


// ************************************************************************* //
