/*--------------------------------*- C++ -*----------------------------------*\
| =========                 |                                                 |
| \\      /  F ield         | OpenFOAM: The Open Source CFD Toolbox           |
|  \\    /   O peration     | Version:  2406                                  |
|   \\  /    A nd           | Website:  www.openfoam.com                      |
|    \\/     M anipulation  |                                                 |
\*---------------------------------------------------------------------------*/
FoamFile
{
    version     2.0;
    format      ascii;
    arch        "LSB;label=32;scalar=64";
    class       volScalarField;
    location    "2.4";
    object      Qdot;
}
// * * * * * * * * * * * * * * * * * * * * * * * * * * * * * * * * * * * * * //

dimensions      [1 -1 -3 0 0 0 0];

internalField   nonuniform List<scalar> 
1000
(
2.13733e-08
8.61959e-08
1.42926e-07
1.86273e-06
1.44493e-05
7.30134e-05
0.000271839
0.000806491
0.00201182
0.00438216
0.00856333
0.0153166
0.0254599
0.0397949
0.0590337
0.0837325
0.114241
0.150675
0.192906
0.240573
0.293114
0.349807
0.409815
0.472241
0.536171
0.600719
0.665065
0.728475
0.790324
0.850101
0.907414
0.96198
1.01363
1.06227
1.1079
1.15057
1.19042
1.22757
1.26221
1.29453
1.32473
1.35302
1.37959
1.40463
1.42832
1.45083
1.4723
1.49289
1.5127
1.53184
1.55042
1.56851
1.5862
1.60353
1.62056
1.63735
1.65382
1.67011
1.68638
1.70252
1.71853
1.73445
1.75029
1.76606
1.78178
1.79745
1.81308
1.82868
1.84425
1.85982
1.87537
1.89092
1.90648
1.92205
1.93764
1.95326
1.96891
1.9846
2.00033
2.01613
2.03198
2.0479
2.0639
2.07999
2.09616
2.11241
2.12864
2.14506
2.16172
2.17848
2.19537
2.21239
2.22954
2.24684
2.26429
2.2819
2.29967
2.3176
2.33572
2.35401
2.37248
2.39114
2.41
2.42905
2.4483
2.46776
2.48743
2.50732
2.52742
2.54774
2.56829
2.58906
2.61008
2.63132
2.65281
2.67455
2.69653
2.71876
2.74126
2.76401
2.78703
2.81033
2.83389
2.85774
2.88187
2.9063
2.93101
2.95603
2.98136
3.007
3.03296
3.05924
3.08586
3.11281
3.14011
3.16775
3.19562
3.22368
3.25247
3.28164
3.3112
3.34115
3.3715
3.40224
3.4334
3.46499
3.497
3.52946
3.56236
3.59571
3.62953
3.66383
3.69861
3.73387
3.76964
3.80592
3.84271
3.88004
3.9179
3.9563
3.99526
4.03479
4.0749
4.11559
4.15675
4.19816
4.24069
4.28388
4.32772
4.37222
4.41739
4.46325
4.50981
4.55708
4.60508
4.65382
4.70333
4.75361
4.80469
4.85659
4.90932
4.9629
5.01735
5.0727
5.12896
5.18616
5.24431
5.30344
5.36358
5.42474
5.48695
5.55023
5.61461
5.68011
5.74677
5.8146
5.88363
5.9539
6.02543
6.09824
6.17238
6.24786
6.32473
6.40301
6.48275
6.56396
6.6467
6.731
6.81689
6.90442
6.99363
7.08456
7.17726
7.27176
7.36813
7.46641
7.56664
7.66889
7.7732
7.87964
7.98826
8.09911
8.21227
8.32779
8.44575
8.5662
8.68922
8.81488
8.94326
9.07443
9.20846
9.34544
9.48546
9.62859
9.77493
9.92457
10.0776
10.2341
10.3942
10.5581
10.7257
10.8973
11.0729
11.2527
11.4368
11.6254
11.8185
12.0165
12.2193
12.4273
12.6406
12.8593
13.0838
13.3141
13.5506
13.7934
14.0429
14.2992
14.5626
14.8335
15.112
15.3985
15.6933
15.9967
16.309
16.6307
16.9619
17.3031
17.6547
18.0171
18.3907
18.7758
19.1731
19.583
20.0059
20.4425
20.8932
21.3588
21.8398
22.337
22.8511
23.3828
23.933
24.5026
25.0924
25.6985
26.3264
26.9847
27.6674
28.3756
29.1106
29.874
30.6673
31.492
32.3499
33.2427
34.1724
35.1411
36.1509
37.2043
38.3037
39.4518
40.6516
41.9063
43.2191
44.5937
46.0342
47.5448
49.1301
50.7951
52.5454
54.387
56.3264
58.3709
60.5275
62.7865
65.1657
67.7095
70.4049
73.2636
76.2995
79.5283
82.9669
86.634
90.5506
94.7397
99.2271
104.041
109.214
114.782
120.783
127.263
134.271
141.858
149.998
158.87
168.587
179.206
190.835
203.612
217.698
233.281
250.586
269.874
291.454
315.668
342.697
373.633
408.876
449.216
495.648
549.422
612.127
685.801
773.076
877.388
1003.27
1156.81
1346.26
1583.11
1883.64
2271.69
2783.51
3476.02
4446.61
5869.46
8064.99
11664.8
17995
30082.3
55432.9
114293
269264
747321
2.40695e+06
8.92541e+06
2.76148e+07
473398
1927.57
12.2844
0.263762
0.0207806
0.00447429
0.00185749
0.00114034
0.000873754
0.000756653
0.000700259
0.000671687
0.000656938
0.000649073
0.00064495
0.000642808
0.000641594
0.000640977
0.000640615
0.000640488
0.000640386
0.000640399
0.000640372
0.000640359
0.000640354
0.000640288
0.000640289
0.000640355
0.000640293
0.000640296
0.000640364
0.000640367
0.000640306
0.000640373
0.000640312
0.000640379
0.000640319
0.000640387
0.000640325
0.000640328
0.000640332
0.000640337
0.000640339
0.000640408
0.000640345
0.000640348
0.000640417
0.000640356
0.000640423
0.000640426
0.000640429
0.000640367
0.00064037
0.000640373
0.000640377
0.000640446
0.000640448
0.000640452
0.000640391
0.000640394
0.000640461
0.000640401
0.000640403
0.000640407
0.000640475
0.000640414
0.000640481
0.000640419
0.000640487
0.000640491
0.00064043
0.000640433
0.000640502
0.00064044
0.000640443
0.000640447
0.000640449
0.000640453
0.000640456
0.000640524
0.000640462
0.000640465
0.000640469
0.000640472
0.000640475
0.000640478
0.000640547
0.000640486
0.000640554
0.000640493
0.000640496
0.000640499
0.000640502
0.000640505
0.000640508
0.000640511
0.000640579
0.000640582
0.000640587
0.000640525
0.000640528
0.000640531
0.000640534
0.000640602
0.000640541
0.000640609
0.000640612
0.000640615
0.000640618
0.000640491
0.000640496
0.000640499
0.000640501
0.000640505
0.000640507
0.000640576
0.000640515
0.000640518
0.000640587
0.000640591
0.000640529
0.000640533
0.000640535
0.000640539
0.000640607
0.000640545
0.000640548
0.000640616
0.000640619
0.000640558
0.000640561
0.000640564
0.000640568
0.000640636
0.000640574
0.000640642
0.00064058
0.000640649
0.000640587
0.000640655
0.000640594
0.000640661
0.000640666
0.000640603
0.000640607
0.00064061
0.000640612
0.000640616
0.000640619
0.000640688
0.000640625
0.000640628
0.000640633
0.000640636
0.000640704
0.000640642
0.00064071
0.000640648
0.000640651
0.00064072
0.000640658
0.000640727
0.000640665
0.000640668
0.000640736
0.000640739
0.000640677
0.00064068
0.000640685
0.000640753
0.000640756
0.00064076
0.000640698
0.000640701
0.000640705
0.000640774
0.000640711
0.000640714
0.000640718
0.000640786
0.000640789
0.000640727
0.00064073
0.000640799
0.000640737
0.000640741
0.000640809
0.000640812
0.00064075
0.000640754
0.000640758
0.000640761
0.000640828
0.000640767
0.00064077
0.000640773
0.000640842
0.00064078
0.000640783
0.000640851
0.00064079
0.000640857
0.000640797
0.000640799
0.000640868
0.000640871
0.000640809
0.000640812
0.000640816
0.000640884
0.000640822
0.000640826
0.000640894
0.000640897
0.000640835
0.000640903
0.000640842
0.000640845
0.000640913
0.000640916
0.000640855
0.000640857
0.00064086
0.000640865
0.000640933
0.00064087
0.000640939
0.000640941
0.000640881
0.000640949
0.000640953
0.000640892
0.000640894
0.000640963
0.000640903
0.000640905
0.000640909
0.000640978
0.000640982
0.00064092
0.000640923
0.000640926
0.000640928
0.000640997
0.000640935
0.000640939
0.000641007
0.00064101
0.000641013
0.000640951
0.000640955
0.000640958
0.000641026
0.000641029
0.000641033
0.000640971
0.00064104
0.000640979
0.000640981
0.000640985
0.000641053
0.000640992
0.000641059
0.000640998
0.000641002
0.000641005
0.000641073
0.000641011
0.000641079
0.000641082
0.000641086
0.000641088
0.000641028
0.000641031
0.000641099
0.000641036
0.000641041
0.000641109
0.000641048
0.000641053
0.000641056
0.000641058
0.000641063
0.00064113
0.000641069
0.000641136
0.000641076
0.000641079
0.000641148
0.000641086
0.000641089
0.000641156
0.000641096
0.000641099
0.000641102
0.000641105
0.000641107
0.000641111
0.000641115
0.000641182
0.000641121
0.000641189
0.000641128
0.000641131
0.000641136
0.000641204
0.000641206
0.00064121
0.000641149
0.000641218
0.000641157
0.00064116
0.000641163
0.000641165
0.000641169
0.000641237
0.00064124
0.00064118
0.000641182
0.000641186
0.000641188
0.000641257
0.00064126
0.000641263
0.000641201
0.000641205
0.000641207
0.000641213
0.000641281
0.000641283
0.000641222
0.000641226
0.00064123
0.000641234
0.000641236
0.000641239
0.000641307
0.00064131
0.00064125
0.000641253
0.000641257
0.000641259
0.000641263
0.000641266
0.000641269
0.000641208
0.000641211
0.000641215
0.000641219
0.000641286
0.000641225
0.000641227
0.000641232
0.000641234
0.000641238
0.000641242
0.00064131
0.000641248
0.000641252
0.000641255
0.000641258
0.000641326
0.00064133
0.000641333
0.000641272
0.000641275
0.000641279
0.000641282
0.00064135
0.000641289
0.000641357
0.00064136
0.000641299
0.000641303
0.000641306
0.000641309
0.000641378
0.000641316
0.000641319
0.000641387
0.000641391
0.000641394
0.000641332
0.000641336
0.00064134
0.000641343
0.000641346
0.000641415
0.000641353
0.000641355
0.000641359
0.000641363
0.000641366
0.000641434
0.000641373
0.000641441
0.00064138
0.000641383
0.000641387
0.000641391
0.000641394
0.000641396
0.000641464
0.000641468
0.000641407
0.00064141
0.000641413
0.000641416
0.000641421
0.000641423
0.000641427
0.000641429
0.000641499
0.000641436
0.000641504
0.000641444
0.000641447
0.000641515
0.000641518
0.000641522
0.000641461
0.000641464
0.000641467
0.00064147
0.000641473
0.000641477
0.000641545
0.000641549
0.000641487
0.000641555
0.000641495
0.000641499
0.000641501
0.000641506
0.000641574
0.000641512
0.000641515
0.000641518
0.000641522
0.000641591
0.000641529
0.000641532
0.000641536
0.000641603
0.000641543
0.00064161
0.000641548
0.000641552
0.000641555
0.000641558
0.000641627
0.000641565
0.000641568
0.000641573
0.000641576
0.000641579
0.000641647
0.000641585
0.000641589
0.000641593
0.000641596
0.000641665
0.000641604
0.000641672
0.000641675
0.000641679
0.000641618
0.000641621
0.000641689
0.000641627
0.000641695
0.000641634
0.000641638
0.000641705
0.000641645
0.000641647
0.00064165
0.000641718
0.000641657
0.00064166
0.000641664
0.000641667
0.00064167
0.000641673
0.00064174
0.00064168
0.000641684
0.000641687
0.000641691
0.000641694
0.000641697
0.0006417
0.000641769
0.000641708
0.000641711
0.000641714
0.000641717
0.000641721
0.000641724
0.000641795
0.000641798
0.000641801
0.000641804
0.000641744
0.000641747
0.000641816
0.000641754
0.000641757
0.000641761
0.000641765
0.000641833
0.000641771
0.000641839
0.000641777
0.000641846
0.000641784
0.000641853
0.000641791
0.000641795
0.000641798
0.000641866
0.000641805
0.000641807
0.000641876
0.000641814
0.000641817
0.000641821
0.000641889
0.000641827
0.00064183
0.000641899
0.000641837
0.000641841
0.000641844
0.000641848
0.000641852
0.00064192
0.000641858
0.000641861
0.000641865
0.000641869
0.000641872
0.000641941
0.000641879
0.000641883
0.000641951
0.000641954
0.000641892
0.000641896
0.000641964
0.000641902
0.000641906
0.00064191
0.000641978
0.000641916
0.000641921
0.00064199
0.000641993
0.000641996
0.000642
0.000642003
0.000641942
0.000641946
0.000641948
0.000642018
0.000641957
0.00064196
0.000641964
0.000642031
0.000641969
0.000642038
0.000641977
0.000641981
0.000641985
0.000641923
0.000641926
0.000641995
0.000641933
0.000641935
0.000641939
0.000641942
0.000641945
0.000641949
0.000642018
0.000641956
0.000642024
0.000642028
0.000642031
0.000642035
0.000641973
0.000641976
0.000642046
0.000641984
0.000642052
0.00064199
0.000642059
0.000641998
0.000642066
0.000642005
0.000642008
0.000642011
0.000642015
0.000642017
0.000642022
0.000642026
0.000642029
0.000642097
0.0006421
0.000642104
0.000642107
0.000642111
0.000642114
0.000642118
0.000642056
0.000642059
0.000642063
0.000642067
0.000642135
0.000642074
0.000642077
0.000642145
0.00064215
0.000642088
)
;

boundaryField
{
    fixedWall
    {
        type            calculated;
        value           uniform 0;
    }
    outlet
    {
        type            calculated;
        value           uniform 0;
    }
    defaultFaces
    {
        type            empty;
    }
}


// ************************************************************************* //
