/*--------------------------------*- C++ -*----------------------------------*\
| =========                 |                                                 |
| \\      /  F ield         | OpenFOAM: The Open Source CFD Toolbox           |
|  \\    /   O peration     | Version:  2406                                  |
|   \\  /    A nd           | Website:  www.openfoam.com                      |
|    \\/     M anipulation  |                                                 |
\*---------------------------------------------------------------------------*/
FoamFile
{
    version     2.0;
    format      ascii;
    arch        "LSB;label=32;scalar=64";
    class       volVectorField;
    location    "2.4";
    object      U;
}
// * * * * * * * * * * * * * * * * * * * * * * * * * * * * * * * * * * * * * //

dimensions      [0 1 -1 0 0 0 0];

internalField   nonuniform List<vector> 
1000
(
(-1.05565e-05 0 0)
(-4.56625e-05 0 0)
(-0.000107396 0 0)
(-0.000184877 0 0)
(-0.000272474 0 0)
(-0.000367154 0 0)
(-0.000466958 0 0)
(-0.000570405 0 0)
(-0.000676339 0 0)
(-0.000783857 0 0)
(-0.00089224 0 0)
(-0.0010009 0 0)
(-0.00110936 0 0)
(-0.00121721 0 0)
(-0.00132411 0 0)
(-0.00142977 0 0)
(-0.00153393 0 0)
(-0.00163639 0 0)
(-0.00173696 0 0)
(-0.00183548 0 0)
(-0.00193181 0 0)
(-0.00202585 0 0)
(-0.00211749 0 0)
(-0.00220665 0 0)
(-0.00229327 0 0)
(-0.00237729 0 0)
(-0.00245867 0 0)
(-0.00253739 0 0)
(-0.00261342 0 0)
(-0.00268675 0 0)
(-0.00275739 0 0)
(-0.00282533 0 0)
(-0.00289061 0 0)
(-0.00295323 0 0)
(-0.00301322 0 0)
(-0.00307062 0 0)
(-0.00312547 0 0)
(-0.00317781 0 0)
(-0.00322769 0 0)
(-0.00327516 0 0)
(-0.00332028 0 0)
(-0.00336311 0 0)
(-0.0034037 0 0)
(-0.00344213 0 0)
(-0.00347846 0 0)
(-0.00351275 0 0)
(-0.00354507 0 0)
(-0.0035755 0 0)
(-0.00360411 0 0)
(-0.00363096 0 0)
(-0.00365613 0 0)
(-0.00367969 0 0)
(-0.00370171 0 0)
(-0.00372225 0 0)
(-0.00374138 0 0)
(-0.00375911 0 0)
(-0.0037755 0 0)
(-0.00379075 0 0)
(-0.00380499 0 0)
(-0.0038182 0 0)
(-0.00383037 0 0)
(-0.00384157 0 0)
(-0.00385188 0 0)
(-0.00386133 0 0)
(-0.00387001 0 0)
(-0.00387794 0 0)
(-0.00388522 0 0)
(-0.00389185 0 0)
(-0.00389782 0 0)
(-0.00390333 0 0)
(-0.00390827 0 0)
(-0.00391279 0 0)
(-0.00391688 0 0)
(-0.0039205 0 0)
(-0.00392381 0 0)
(-0.00392677 0 0)
(-0.00392943 0 0)
(-0.0039318 0 0)
(-0.00393392 0 0)
(-0.0039358 0 0)
(-0.00393748 0 0)
(-0.00393896 0 0)
(-0.00394027 0 0)
(-0.00394142 0 0)
(-0.00394244 0 0)
(-0.00394333 0 0)
(-0.00394412 0 0)
(-0.00394479 0 0)
(-0.00394539 0 0)
(-0.00394589 0 0)
(-0.00394635 0 0)
(-0.00394672 0 0)
(-0.00394706 0 0)
(-0.00394735 0 0)
(-0.00394758 0 0)
(-0.0039478 0 0)
(-0.00394796 0 0)
(-0.00394812 0 0)
(-0.00394824 0 0)
(-0.00394835 0 0)
(-0.00394845 0 0)
(-0.00394852 0 0)
(-0.00394859 0 0)
(-0.00394865 0 0)
(-0.0039487 0 0)
(-0.00394874 0 0)
(-0.00394878 0 0)
(-0.00394881 0 0)
(-0.00394884 0 0)
(-0.00394887 0 0)
(-0.0039489 0 0)
(-0.00394892 0 0)
(-0.00394895 0 0)
(-0.00394897 0 0)
(-0.003949 0 0)
(-0.00394902 0 0)
(-0.00394905 0 0)
(-0.00394908 0 0)
(-0.00394911 0 0)
(-0.00394914 0 0)
(-0.00394918 0 0)
(-0.00394921 0 0)
(-0.00394925 0 0)
(-0.00394929 0 0)
(-0.00394933 0 0)
(-0.00394937 0 0)
(-0.00394942 0 0)
(-0.00394947 0 0)
(-0.00394952 0 0)
(-0.00394957 0 0)
(-0.00394963 0 0)
(-0.00394969 0 0)
(-0.00394975 0 0)
(-0.00394981 0 0)
(-0.00394988 0 0)
(-0.00394995 0 0)
(-0.00395002 0 0)
(-0.00395009 0 0)
(-0.00395017 0 0)
(-0.00395025 0 0)
(-0.00395033 0 0)
(-0.00395041 0 0)
(-0.0039505 0 0)
(-0.00395058 0 0)
(-0.00395067 0 0)
(-0.00395077 0 0)
(-0.00395086 0 0)
(-0.00395095 0 0)
(-0.00395105 0 0)
(-0.00395115 0 0)
(-0.00395124 0 0)
(-0.00395134 0 0)
(-0.00395144 0 0)
(-0.00395154 0 0)
(-0.00395164 0 0)
(-0.00395174 0 0)
(-0.00395185 0 0)
(-0.00395195 0 0)
(-0.00395205 0 0)
(-0.00395215 0 0)
(-0.00395225 0 0)
(-0.00395235 0 0)
(-0.00395245 0 0)
(-0.00395255 0 0)
(-0.00395265 0 0)
(-0.00395275 0 0)
(-0.00395285 0 0)
(-0.00395294 0 0)
(-0.00395304 0 0)
(-0.00395314 0 0)
(-0.00395323 0 0)
(-0.00395333 0 0)
(-0.00395342 0 0)
(-0.00395352 0 0)
(-0.00395361 0 0)
(-0.00395371 0 0)
(-0.0039538 0 0)
(-0.0039539 0 0)
(-0.00395399 0 0)
(-0.00395408 0 0)
(-0.00395418 0 0)
(-0.00395427 0 0)
(-0.00395436 0 0)
(-0.00395446 0 0)
(-0.00395455 0 0)
(-0.00395464 0 0)
(-0.00395474 0 0)
(-0.00395483 0 0)
(-0.00395492 0 0)
(-0.00395502 0 0)
(-0.00395511 0 0)
(-0.0039552 0 0)
(-0.00395529 0 0)
(-0.00395538 0 0)
(-0.00395548 0 0)
(-0.00395557 0 0)
(-0.00395566 0 0)
(-0.00395574 0 0)
(-0.00395584 0 0)
(-0.00395592 0 0)
(-0.00395602 0 0)
(-0.00395609 0 0)
(-0.00395619 0 0)
(-0.00395629 0 0)
(-0.00395632 0 0)
(-0.00395645 0 0)
(-0.00395652 0 0)
(-0.00395659 0 0)
(-0.00395669 0 0)
(-0.00395675 0 0)
(-0.00395684 0 0)
(-0.00395691 0 0)
(-0.00395699 0 0)
(-0.00395707 0 0)
(-0.00395714 0 0)
(-0.00395722 0 0)
(-0.00395729 0 0)
(-0.00395736 0 0)
(-0.00395743 0 0)
(-0.0039575 0 0)
(-0.00395757 0 0)
(-0.00395764 0 0)
(-0.0039577 0 0)
(-0.00395777 0 0)
(-0.00395783 0 0)
(-0.0039579 0 0)
(-0.00395796 0 0)
(-0.00395801 0 0)
(-0.00395807 0 0)
(-0.00395813 0 0)
(-0.00395818 0 0)
(-0.00395823 0 0)
(-0.00395828 0 0)
(-0.00395833 0 0)
(-0.00395838 0 0)
(-0.00395842 0 0)
(-0.00395847 0 0)
(-0.00395851 0 0)
(-0.00395855 0 0)
(-0.00395859 0 0)
(-0.00395863 0 0)
(-0.00395867 0 0)
(-0.00395871 0 0)
(-0.00395874 0 0)
(-0.00395878 0 0)
(-0.00395882 0 0)
(-0.00395886 0 0)
(-0.0039589 0 0)
(-0.00395895 0 0)
(-0.00395899 0 0)
(-0.00395904 0 0)
(-0.00395909 0 0)
(-0.00395914 0 0)
(-0.0039592 0 0)
(-0.00395926 0 0)
(-0.00395932 0 0)
(-0.00395938 0 0)
(-0.00395944 0 0)
(-0.00395951 0 0)
(-0.00395957 0 0)
(-0.00395964 0 0)
(-0.0039597 0 0)
(-0.00395976 0 0)
(-0.00395982 0 0)
(-0.00395988 0 0)
(-0.00395994 0 0)
(-0.00395999 0 0)
(-0.00396003 0 0)
(-0.00396007 0 0)
(-0.0039601 0 0)
(-0.00396013 0 0)
(-0.00396014 0 0)
(-0.00396016 0 0)
(-0.00396016 0 0)
(-0.00396016 0 0)
(-0.00396015 0 0)
(-0.00396014 0 0)
(-0.00396012 0 0)
(-0.0039601 0 0)
(-0.00396007 0 0)
(-0.00396004 0 0)
(-0.00396001 0 0)
(-0.00395999 0 0)
(-0.00395996 0 0)
(-0.00395993 0 0)
(-0.00395991 0 0)
(-0.00395989 0 0)
(-0.00395987 0 0)
(-0.00395985 0 0)
(-0.00395984 0 0)
(-0.00395983 0 0)
(-0.00395982 0 0)
(-0.00395981 0 0)
(-0.00395981 0 0)
(-0.00395981 0 0)
(-0.0039598 0 0)
(-0.0039598 0 0)
(-0.00395979 0 0)
(-0.00395978 0 0)
(-0.00395977 0 0)
(-0.00395976 0 0)
(-0.00395974 0 0)
(-0.00395972 0 0)
(-0.0039597 0 0)
(-0.00395967 0 0)
(-0.00395964 0 0)
(-0.00395961 0 0)
(-0.00395957 0 0)
(-0.00395954 0 0)
(-0.0039595 0 0)
(-0.00395946 0 0)
(-0.00395943 0 0)
(-0.0039594 0 0)
(-0.00395936 0 0)
(-0.00395934 0 0)
(-0.00395931 0 0)
(-0.00395929 0 0)
(-0.00395927 0 0)
(-0.00395926 0 0)
(-0.00395924 0 0)
(-0.00395923 0 0)
(-0.00395922 0 0)
(-0.00395917 0 0)
(-0.00395925 0 0)
(-0.00395899 0 0)
(-0.00395922 0 0)
(-0.00395892 0 0)
(-0.00395877 0 0)
(-0.00395908 0 0)
(-0.00395851 0 0)
(-0.00395833 0 0)
(-0.00395813 0 0)
(-0.00395789 0 0)
(-0.00395739 0 0)
(-0.00395705 0 0)
(-0.00395698 0 0)
(-0.00395619 0 0)
(-0.00395566 0 0)
(-0.00395511 0 0)
(-0.00395487 0 0)
(-0.00395458 0 0)
(-0.00395362 0 0)
(-0.00395366 0 0)
(-0.00395357 0 0)
(-0.00395322 0 0)
(-0.00395318 0 0)
(-0.00395316 0 0)
(-0.0039531 0 0)
(-0.00395336 0 0)
(-0.00395297 0 0)
(-0.00395329 0 0)
(-0.00395297 0 0)
(-0.00395243 0 0)
(-0.00395247 0 0)
(-0.00395146 0 0)
(-0.00395061 0 0)
(-0.00394935 0 0)
(-0.00394752 0 0)
(-0.00394564 0 0)
(-0.00394264 0 0)
(-0.00393926 0 0)
(-0.0039352 0 0)
(-0.00392984 0 0)
(-0.00392415 0 0)
(-0.00391751 0 0)
(-0.00391066 0 0)
(-0.00390322 0 0)
(-0.00389265 0 0)
(-0.00387618 0 0)
(-0.00386347 0 0)
(-0.00381527 0 0)
(-0.00382149 0 0)
(-0.00393985 0 0)
(-0.00402381 0 0)
(-0.00569088 0 0)
(-0.00431882 0 0)
(0.0175969 0 0)
(0.053076 0 0)
(0.0780596 0 0)
(0.0913092 0 0)
(0.098068 0 0)
(0.101266 0 0)
(0.102795 0 0)
(0.103448 0 0)
(0.103902 0 0)
(0.104057 0 0)
(0.104142 0 0)
(0.104154 0 0)
(0.104285 0 0)
(0.104259 0 0)
(0.104168 0 0)
(0.104329 0 0)
(0.104263 0 0)
(0.104184 0 0)
(0.104306 0 0)
(0.104281 0 0)
(0.104224 0 0)
(0.10427 0 0)
(0.104281 0 0)
(0.104217 0 0)
(0.104271 0 0)
(0.104298 0 0)
(0.104196 0 0)
(0.104291 0 0)
(0.104292 0 0)
(0.104179 0 0)
(0.104313 0 0)
(0.104278 0 0)
(0.104192 0 0)
(0.104311 0 0)
(0.104263 0 0)
(0.1042 0 0)
(0.104295 0 0)
(0.104268 0 0)
(0.10424 0 0)
(0.104268 0 0)
(0.104251 0 0)
(0.104251 0 0)
(0.104274 0 0)
(0.104225 0 0)
(0.104283 0 0)
(0.104262 0 0)
(0.104267 0 0)
(0.104225 0 0)
(0.104248 0 0)
(0.104269 0 0)
(0.104272 0 0)
(0.104277 0 0)
(0.104177 0 0)
(0.104325 0 0)
(0.104267 0 0)
(0.104186 0 0)
(0.104311 0 0)
(0.104266 0 0)
(0.104197 0 0)
(0.104291 0 0)
(0.104276 0 0)
(0.104232 0 0)
(0.104252 0 0)
(0.10425 0 0)
(0.104267 0 0)
(0.10428 0 0)
(0.104211 0 0)
(0.104264 0 0)
(0.104294 0 0)
(0.104192 0 0)
(0.104295 0 0)
(0.104274 0 0)
(0.104194 0 0)
(0.104296 0 0)
(0.104273 0 0)
(0.104213 0 0)
(0.104248 0 0)
(0.10431 0 0)
(0.104245 0 0)
(0.104205 0 0)
(0.104267 0 0)
(0.104266 0 0)
(0.104252 0 0)
(0.104253 0 0)
(0.104259 0 0)
(0.10422 0 0)
(0.104289 0 0)
(0.104259 0 0)
(0.104203 0 0)
(0.10429 0 0)
(0.104276 0 0)
(0.104215 0 0)
(0.104251 0 0)
(0.104252 0 0)
(0.104273 0 0)
(0.104268 0 0)
(0.104175 0 0)
(0.10432 0 0)
(0.104269 0 0)
(0.104178 0 0)
(0.104297 0 0)
(0.104265 0 0)
(0.104215 0 0)
(0.104271 0 0)
(0.104234 0 0)
(0.104265 0 0)
(0.104266 0 0)
(0.104217 0 0)
(0.104255 0 0)
(0.104292 0 0)
(0.104197 0 0)
(0.104248 0 0)
(0.10431 0 0)
(0.104191 0 0)
(0.104271 0 0)
(0.10426 0 0)
(0.104207 0 0)
(0.104286 0 0)
(0.104257 0 0)
(0.104214 0 0)
(0.104258 0 0)
(0.104281 0 0)
(0.104204 0 0)
(0.10425 0 0)
(0.104296 0 0)
(0.104204 0 0)
(0.104237 0 0)
(0.104303 0 0)
(0.104203 0 0)
(0.104244 0 0)
(0.104267 0 0)
(0.104246 0 0)
(0.104224 0 0)
(0.10428 0 0)
(0.104247 0 0)
(0.104194 0 0)
(0.104298 0 0)
(0.104229 0 0)
(0.104251 0 0)
(0.104228 0 0)
(0.104257 0 0)
(0.104266 0 0)
(0.104209 0 0)
(0.104261 0 0)
(0.104239 0 0)
(0.104253 0 0)
(0.10427 0 0)
(0.104198 0 0)
(0.104247 0 0)
(0.104304 0 0)
(0.104192 0 0)
(0.10424 0 0)
(0.104266 0 0)
(0.104244 0 0)
(0.104216 0 0)
(0.104277 0 0)
(0.104251 0 0)
(0.104186 0 0)
(0.104284 0 0)
(0.104262 0 0)
(0.104206 0 0)
(0.104263 0 0)
(0.10425 0 0)
(0.104228 0 0)
(0.104231 0 0)
(0.104266 0 0)
(0.104217 0 0)
(0.104272 0 0)
(0.104249 0 0)
(0.104182 0 0)
(0.104287 0 0)
(0.104259 0 0)
(0.104194 0 0)
(0.104257 0 0)
(0.10428 0 0)
(0.104187 0 0)
(0.104249 0 0)
(0.104284 0 0)
(0.10419 0 0)
(0.10424 0 0)
(0.104298 0 0)
(0.104186 0 0)
(0.104248 0 0)
(0.104245 0 0)
(0.104252 0 0)
(0.104224 0 0)
(0.104229 0 0)
(0.104235 0 0)
(0.104261 0 0)
(0.104262 0 0)
(0.104187 0 0)
(0.104249 0 0)
(0.104244 0 0)
(0.104238 0 0)
(0.104269 0 0)
(0.104192 0 0)
(0.104238 0 0)
(0.104259 0 0)
(0.104231 0 0)
(0.104228 0 0)
(0.104248 0 0)
(0.104221 0 0)
(0.104245 0 0)
(0.104262 0 0)
(0.104197 0 0)
(0.104246 0 0)
(0.104238 0 0)
(0.104244 0 0)
(0.104234 0 0)
(0.104242 0 0)
(0.104204 0 0)
(0.104262 0 0)
(0.104248 0 0)
(0.104187 0 0)
(0.104269 0 0)
(0.104261 0 0)
(0.104193 0 0)
(0.104235 0 0)
(0.104265 0 0)
(0.104189 0 0)
(0.10427 0 0)
(0.104233 0 0)
(0.104193 0 0)
(0.104268 0 0)
(0.104252 0 0)
(0.104185 0 0)
(0.104244 0 0)
(0.104281 0 0)
(0.104175 0 0)
(0.104242 0 0)
(0.104247 0 0)
(0.104225 0 0)
(0.104246 0 0)
(0.104199 0 0)
(0.104249 0 0)
(0.104226 0 0)
(0.104237 0 0)
(0.104254 0 0)
(0.104187 0 0)
(0.104235 0 0)
(0.104283 0 0)
(0.104181 0 0)
(0.104229 0 0)
(0.104266 0 0)
(0.104183 0 0)
(0.104274 0 0)
(0.104214 0 0)
(0.104222 0 0)
(0.104251 0 0)
(0.104193 0 0)
(0.104274 0 0)
(0.104213 0 0)
(0.104235 0 0)
(0.104197 0 0)
(0.104248 0 0)
(0.104259 0 0)
(0.104233 0 0)
(0.10418 0 0)
(0.104227 0 0)
(0.104261 0 0)
(0.104214 0 0)
(0.104239 0 0)
(0.104197 0 0)
(0.104244 0 0)
(0.10422 0 0)
(0.104234 0 0)
(0.104247 0 0)
(0.104184 0 0)
(0.104242 0 0)
(0.104274 0 0)
(0.104167 0 0)
(0.104218 0 0)
(0.10429 0 0)
(0.104168 0 0)
(0.10424 0 0)
(0.104257 0 0)
(0.104162 0 0)
(0.104276 0 0)
(0.104231 0 0)
(0.104179 0 0)
(0.104267 0 0)
(0.104219 0 0)
(0.104178 0 0)
(0.104267 0 0)
(0.104237 0 0)
(0.104184 0 0)
(0.104231 0 0)
(0.104268 0 0)
(0.104213 0 0)
(0.104149 0 0)
(0.104285 0 0)
(0.104226 0 0)
(0.104177 0 0)
(0.104265 0 0)
(0.104233 0 0)
(0.104184 0 0)
(0.104217 0 0)
(0.10428 0 0)
(0.104155 0 0)
(0.104224 0 0)
(0.104289 0 0)
(0.104162 0 0)
(0.104217 0 0)
(0.104269 0 0)
(0.104173 0 0)
(0.104229 0 0)
(0.104228 0 0)
(0.104221 0 0)
(0.10425 0 0)
(0.104169 0 0)
(0.104237 0 0)
(0.104217 0 0)
(0.104244 0 0)
(0.104219 0 0)
(0.104167 0 0)
(0.104266 0 0)
(0.104241 0 0)
(0.104164 0 0)
(0.104225 0 0)
(0.104242 0 0)
(0.104216 0 0)
(0.104199 0 0)
(0.104228 0 0)
(0.10425 0 0)
(0.104174 0 0)
(0.104222 0 0)
(0.104228 0 0)
(0.104217 0 0)
(0.104243 0 0)
(0.104176 0 0)
(0.104214 0 0)
(0.10427 0 0)
(0.10416 0 0)
(0.104216 0 0)
(0.104283 0 0)
(0.104148 0 0)
(0.104222 0 0)
(0.104274 0 0)
(0.104158 0 0)
(0.104221 0 0)
(0.104226 0 0)
(0.104214 0 0)
(0.104228 0 0)
(0.104196 0 0)
(0.104235 0 0)
(0.104223 0 0)
(0.104161 0 0)
(0.104265 0 0)
(0.104211 0 0)
(0.104169 0 0)
(0.10425 0 0)
(0.104226 0 0)
(0.104195 0 0)
(0.104208 0 0)
(0.10422 0 0)
(0.104218 0 0)
(0.104238 0 0)
(0.104162 0 0)
(0.104209 0 0)
(0.104268 0 0)
(0.104181 0 0)
(0.10421 0 0)
(0.104217 0 0)
(0.104217 0 0)
(0.1042 0 0)
(0.104224 0 0)
(0.104203 0 0)
(0.104201 0 0)
(0.104268 0 0)
(0.104144 0 0)
(0.10422 0 0)
(0.104272 0 0)
(0.104161 0 0)
(0.104207 0 0)
(0.10422 0 0)
(0.104231 0 0)
(0.104195 0 0)
(0.104201 0 0)
(0.104196 0 0)
(0.104252 0 0)
(0.104213 0 0)
(0.104157 0 0)
(0.104253 0 0)
(0.104238 0 0)
(0.104152 0 0)
(0.104217 0 0)
(0.104265 0 0)
(0.10415 0 0)
(0.104204 0 0)
(0.104276 0 0)
(0.104158 0 0)
(0.1042 0 0)
(0.104247 0 0)
(0.104171 0 0)
(0.104227 0 0)
(0.104203 0 0)
(0.10422 0 0)
(0.104224 0 0)
(0.104154 0 0)
(0.104237 0 0)
(0.104232 0 0)
(0.104211 0 0)
(0.104168 0 0)
(0.104189 0 0)
(0.104278 0 0)
(0.104182 0 0)
(0.104155 0 0)
(0.104261 0 0)
(0.104214 0 0)
(0.104165 0 0)
(0.104241 0 0)
(0.104183 0 0)
(0.10422 0 0)
(0.10424 0 0)
(0.104162 0 0)
(0.104202 0 0)
(0.10425 0 0)
(0.104152 0 0)
(0.104207 0 0)
(0.104262 0 0)
(0.104166 0 0)
(0.104189 0 0)
(0.104248 0 0)
(0.104159 0 0)
(0.104226 0 0)
(0.104228 0 0)
(0.104166 0 0)
(0.104243 0 0)
(0.104175 0 0)
(0.10421 0 0)
(0.104224 0 0)
(0.104166 0 0)
(0.104238 0 0)
(0.104213 0 0)
(0.104164 0 0)
(0.104223 0 0)
(0.104246 0 0)
(0.10414 0 0)
(0.104206 0 0)
(0.104266 0 0)
(0.104147 0 0)
(0.104211 0 0)
(0.104221 0 0)
(0.10419 0 0)
(0.104204 0 0)
(0.104186 0 0)
(0.10423 0 0)
(0.104226 0 0)
(0.104147 0 0)
(0.10421 0 0)
(0.104261 0 0)
(0.10413 0 0)
(0.104205 0 0)
(0.104271 0 0)
(0.104143 0 0)
(0.104207 0 0)
(0.104206 0 0)
(0.104204 0 0)
(0.1042 0 0)
(0.104223 0 0)
(0.104169 0 0)
(0.104199 0 0)
(0.104251 0 0)
(0.10414 0 0)
(0.104216 0 0)
(0.104219 0 0)
(0.104203 0 0)
(0.104178 0 0)
(0.10421 0 0)
(0.104217 0 0)
(0.104173 0 0)
(0.104224 0 0)
(0.104184 0 0)
(0.104206 0 0)
(0.104227 0 0)
(0.104156 0 0)
(0.10421 0 0)
(0.104213 0 0)
(0.104212 0 0)
(0.104181 0 0)
(0.104171 0 0)
(0.104237 0 0)
(0.104211 0 0)
(0.104153 0 0)
(0.104215 0 0)
(0.104248 0 0)
(0.104131 0 0)
(0.104208 0 0)
(0.104264 0 0)
(0.104124 0 0)
(0.104206 0 0)
(0.104264 0 0)
(0.10413 0 0)
(0.104199 0 0)
(0.104255 0 0)
(0.104152 0 0)
(0.104194 0 0)
(0.104207 0 0)
(0.104202 0 0)
(0.104224 0 0)
(0.104151 0 0)
(0.104216 0 0)
(0.104217 0 0)
(0.104183 0 0)
(0.104179 0 0)
(0.104222 0 0)
(0.104228 0 0)
(0.104136 0 0)
(0.1042 0 0)
(0.104263 0 0)
(0.104123 0 0)
(0.104216 0 0)
(0.104225 0 0)
(0.104201 0 0)
(0.104151 0 0)
(0.104221 0 0)
(0.104216 0 0)
(0.104159 0 0)
(0.10423 0 0)
(0.104165 0 0)
(0.104222 0 0)
(0.104227 0 0)
(0.104155 0 0)
(0.104199 0 0)
(0.104242 0 0)
(0.104138 0 0)
(0.104205 0 0)
(0.104251 0 0)
(0.104137 0 0)
(0.10419 0 0)
(0.104262 0 0)
(0.104149 0 0)
(0.104187 0 0)
(0.104231 0 0)
(0.104148 0 0)
(0.104222 0 0)
(0.104239 0 0)
(0.104128 0 0)
(0.104201 0 0)
(0.104259 0 0)
(0.104128 0 0)
(0.104205 0 0)
(0.104253 0 0)
(0.104127 0 0)
(0.104201 0 0)
(0.104223 0 0)
(0.104189 0 0)
(0.104208 0 0)
(0.104168 0 0)
(0.104188 0 0)
(0.104238 0 0)
(0.104149 0 0)
(0.104219 0 0)
(0.104202 0 0)
(0.104152 0 0)
(0.104239 0 0)
(0.104202 0 0)
(0.104162 0 0)
(0.1042 0 0)
(0.104204 0 0)
(0.104196 0 0)
(0.104219 0 0)
(0.104146 0 0)
(0.104202 0 0)
(0.104245 0 0)
(0.104132 0 0)
(0.104205 0 0)
(0.104255 0 0)
(0.104119 0 0)
(0.104202 0 0)
(0.104258 0 0)
(0.104139 0 0)
(0.104189 0 0)
(0.104212 0 0)
(0.104195 0 0)
(0.104204 0 0)
(0.104175 0 0)
(0.1042 0 0)
(0.104195 0 0)
(0.104199 0 0)
(0.104182 0 0)
(0.104203 0 0)
(0.104223 0 0)
(0.10415 0 0)
(0.104192 0 0)
(0.104244 0 0)
(0.10415 0 0)
(0.104192 0 0)
(0.104215 0 0)
(0.10417 0 0)
(0.104217 0 0)
(0.104171 0 0)
(0.104211 0 0)
(0.104213 0 0)
(0.104162 0 0)
(0.104205 0 0)
(0.104228 0 0)
(0.104142 0 0)
(0.104191 0 0)
(0.104255 0 0)
(0.104146 0 0)
(0.104198 0 0)
(0.104203 0 0)
(0.104175 0 0)
(0.104236 0 0)
(0.10415 0 0)
(0.104221 0 0)
(0.104191 0 0)
(0.104158 0 0)
(0.104233 0 0)
(0.104167 0 0)
(0.104223 0 0)
(0.104189 0 0)
(0.104164 0 0)
(0.104231 0 0)
(0.104171 0 0)
(0.104201 0 0)
(0.104186 0 0)
(0.104185 0 0)
(0.104228 0 0)
(0.104158 0 0)
(0.104206 0 0)
(0.104229 0 0)
(0.104176 0 0)
)
;

boundaryField
{
    fixedWall
    {
        type            fixedValue;
        value           uniform (0 0 0);
    }
    outlet
    {
        type            pressureInletOutletVelocity;
        value           uniform (0.104176 0 0);
    }
    defaultFaces
    {
        type            empty;
    }
}


// ************************************************************************* //
