/*--------------------------------*- C++ -*----------------------------------*\
| =========                 |                                                 |
| \\      /  F ield         | OpenFOAM: The Open Source CFD Toolbox           |
|  \\    /   O peration     | Version:  2406                                  |
|   \\  /    A nd           | Website:  www.openfoam.com                      |
|    \\/     M anipulation  |                                                 |
\*---------------------------------------------------------------------------*/
FoamFile
{
    version     2.0;
    format      ascii;
    arch        "LSB;label=32;scalar=64";
    class       volScalarField;
    location    "6.1";
    object      O2;
}
// * * * * * * * * * * * * * * * * * * * * * * * * * * * * * * * * * * * * * //

dimensions      [0 0 0 0 0 0 0];

internalField   nonuniform List<scalar> 
1000
(
1.3814e-06
1.37836e-06
1.37297e-06
1.36566e-06
1.35677e-06
1.34651e-06
1.33508e-06
1.32262e-06
1.30925e-06
1.29507e-06
1.28017e-06
1.26463e-06
1.24851e-06
1.23187e-06
1.21477e-06
1.19726e-06
1.17938e-06
1.16117e-06
1.14269e-06
1.12396e-06
1.10502e-06
1.08591e-06
1.06666e-06
1.04731e-06
1.02789e-06
1.00843e-06
9.8897e-07
9.69533e-07
9.50154e-07
9.30863e-07
9.11689e-07
8.92662e-07
8.73809e-07
8.55157e-07
8.36732e-07
8.18559e-07
8.0066e-07
7.83058e-07
7.65772e-07
7.48821e-07
7.32222e-07
7.1599e-07
7.00138e-07
6.84678e-07
6.6962e-07
6.54971e-07
6.40739e-07
6.26929e-07
6.13543e-07
6.00584e-07
5.88052e-07
5.75947e-07
5.64266e-07
5.53007e-07
5.42165e-07
5.31735e-07
5.21712e-07
5.12088e-07
5.02857e-07
4.9401e-07
4.85539e-07
4.77435e-07
4.69689e-07
4.62291e-07
4.55232e-07
4.48502e-07
4.4209e-07
4.35986e-07
4.30181e-07
4.24665e-07
4.19426e-07
4.14455e-07
4.09743e-07
4.05279e-07
4.01054e-07
3.97058e-07
3.93282e-07
3.89718e-07
3.86356e-07
3.83188e-07
3.80205e-07
3.77399e-07
3.74763e-07
3.72288e-07
3.69969e-07
3.67796e-07
3.65764e-07
3.63866e-07
3.62095e-07
3.60445e-07
3.58911e-07
3.57487e-07
3.56166e-07
3.54945e-07
3.53818e-07
3.52781e-07
3.51828e-07
3.50955e-07
3.50158e-07
3.49434e-07
3.48777e-07
3.48186e-07
3.47655e-07
3.47182e-07
3.46764e-07
3.46398e-07
3.46081e-07
3.45809e-07
3.45582e-07
3.45395e-07
3.45247e-07
3.45136e-07
3.4506e-07
3.45016e-07
3.45002e-07
3.45017e-07
3.45059e-07
3.45127e-07
3.45219e-07
3.45333e-07
3.45469e-07
3.45625e-07
3.45799e-07
3.45992e-07
3.462e-07
3.46425e-07
3.46664e-07
3.46917e-07
3.47183e-07
3.47461e-07
3.4775e-07
3.48051e-07
3.48361e-07
3.48681e-07
3.49009e-07
3.49346e-07
3.49691e-07
3.50043e-07
3.50402e-07
3.50768e-07
3.51139e-07
3.51517e-07
3.51899e-07
3.52287e-07
3.5268e-07
3.53077e-07
3.53479e-07
3.53884e-07
3.54294e-07
3.54707e-07
3.55123e-07
3.55543e-07
3.55966e-07
3.56392e-07
3.5682e-07
3.57251e-07
3.57685e-07
3.58121e-07
3.5856e-07
3.59001e-07
3.59443e-07
3.59888e-07
3.60335e-07
3.60784e-07
3.61235e-07
3.61688e-07
3.62142e-07
3.62598e-07
3.63056e-07
3.63516e-07
3.63977e-07
3.64439e-07
3.64903e-07
3.65369e-07
3.65836e-07
3.66305e-07
3.66775e-07
3.67246e-07
3.67719e-07
3.68192e-07
3.68664e-07
3.69142e-07
3.69621e-07
3.70101e-07
3.70583e-07
3.71065e-07
3.7155e-07
3.72035e-07
3.72522e-07
3.7301e-07
3.73499e-07
3.7399e-07
3.74482e-07
3.74975e-07
3.7547e-07
3.75966e-07
3.76463e-07
3.76962e-07
3.77461e-07
3.77963e-07
3.78465e-07
3.78969e-07
3.79474e-07
3.7998e-07
3.80488e-07
3.80997e-07
3.81508e-07
3.82019e-07
3.82533e-07
3.83047e-07
3.83563e-07
3.8408e-07
3.84598e-07
3.85118e-07
3.85639e-07
3.86161e-07
3.86685e-07
3.8721e-07
3.87737e-07
3.88265e-07
3.88794e-07
3.89324e-07
3.89856e-07
3.9039e-07
3.90924e-07
3.9146e-07
3.91998e-07
3.92536e-07
3.93077e-07
3.93618e-07
3.94161e-07
3.94705e-07
3.95251e-07
3.95798e-07
3.96346e-07
3.96896e-07
3.97447e-07
3.98e-07
3.98554e-07
3.99109e-07
3.99666e-07
4.00224e-07
4.00784e-07
4.01345e-07
4.01907e-07
4.02471e-07
4.03037e-07
4.03603e-07
4.04172e-07
4.04741e-07
4.05312e-07
4.05885e-07
4.06459e-07
4.07034e-07
4.07611e-07
4.0819e-07
4.08769e-07
4.09351e-07
4.09934e-07
4.10518e-07
4.11104e-07
4.11691e-07
4.1228e-07
4.1287e-07
4.13462e-07
4.14056e-07
4.14651e-07
4.15247e-07
4.15845e-07
4.16445e-07
4.17046e-07
4.17649e-07
4.18253e-07
4.18859e-07
4.19466e-07
4.20076e-07
4.20686e-07
4.21299e-07
4.21913e-07
4.22528e-07
4.23146e-07
4.23765e-07
4.24385e-07
4.25008e-07
4.25632e-07
4.26257e-07
4.26885e-07
4.27514e-07
4.28145e-07
4.28777e-07
4.29411e-07
4.30047e-07
4.30685e-07
4.31325e-07
4.31966e-07
4.32609e-07
4.33254e-07
4.33901e-07
4.34549e-07
4.35194e-07
4.35846e-07
4.36501e-07
4.37157e-07
4.37815e-07
4.38474e-07
4.39136e-07
4.398e-07
4.40465e-07
4.41132e-07
4.41802e-07
4.42473e-07
4.43146e-07
4.43821e-07
4.44498e-07
4.45177e-07
4.45858e-07
4.46541e-07
4.47226e-07
4.47913e-07
4.48602e-07
4.49293e-07
4.49986e-07
4.50681e-07
4.51378e-07
4.52077e-07
4.52778e-07
4.53482e-07
4.54187e-07
4.54894e-07
4.55604e-07
4.56315e-07
4.57029e-07
4.57745e-07
4.58463e-07
4.59183e-07
4.59905e-07
4.6063e-07
4.61357e-07
4.62086e-07
4.62817e-07
4.6355e-07
4.64285e-07
4.65023e-07
4.65763e-07
4.66505e-07
4.6725e-07
4.67997e-07
4.68746e-07
4.69497e-07
4.70251e-07
4.71007e-07
4.71766e-07
4.72527e-07
4.7329e-07
4.74056e-07
4.74824e-07
4.75595e-07
4.76368e-07
4.77144e-07
4.77922e-07
4.78702e-07
4.79485e-07
4.80271e-07
4.81059e-07
4.8185e-07
4.82644e-07
4.8344e-07
4.84239e-07
4.8504e-07
4.85844e-07
4.86651e-07
4.87461e-07
4.88274e-07
4.89089e-07
4.89907e-07
4.90728e-07
4.91551e-07
4.92378e-07
4.93207e-07
4.9404e-07
4.94875e-07
4.95713e-07
4.96554e-07
4.97399e-07
4.98246e-07
4.99096e-07
4.99949e-07
5.00806e-07
5.01665e-07
5.02527e-07
5.03393e-07
5.04262e-07
5.05134e-07
5.06009e-07
5.06887e-07
5.07769e-07
5.08654e-07
5.09542e-07
5.10433e-07
5.11324e-07
5.12215e-07
5.13116e-07
5.14021e-07
5.14929e-07
5.15841e-07
5.16755e-07
5.17673e-07
5.18595e-07
5.19519e-07
5.20447e-07
5.21379e-07
5.22313e-07
5.23251e-07
5.24193e-07
5.25138e-07
5.26086e-07
5.27038e-07
5.27993e-07
5.28952e-07
5.29914e-07
5.30879e-07
5.31848e-07
5.32821e-07
5.33797e-07
5.34776e-07
5.35759e-07
5.36746e-07
5.37736e-07
5.3873e-07
5.39727e-07
5.40727e-07
5.41732e-07
5.42739e-07
5.43751e-07
5.44766e-07
5.45784e-07
5.46807e-07
5.47833e-07
5.48862e-07
5.49895e-07
5.50932e-07
5.51973e-07
5.53017e-07
5.54065e-07
5.55116e-07
5.56163e-07
5.57223e-07
5.58286e-07
5.59353e-07
5.60425e-07
5.615e-07
5.62579e-07
5.63663e-07
5.6475e-07
5.65842e-07
5.66938e-07
5.68038e-07
5.69142e-07
5.70251e-07
5.71363e-07
5.7248e-07
5.73602e-07
5.74727e-07
5.75857e-07
5.76992e-07
5.78131e-07
5.79274e-07
5.80422e-07
5.81575e-07
5.82732e-07
5.83893e-07
5.85059e-07
5.8623e-07
5.87406e-07
5.88587e-07
5.89772e-07
5.90962e-07
5.92157e-07
5.93357e-07
5.94561e-07
5.95771e-07
5.96986e-07
5.98206e-07
5.9943e-07
6.0066e-07
6.01895e-07
6.03135e-07
6.0438e-07
6.05631e-07
6.06886e-07
6.08147e-07
6.09414e-07
6.10685e-07
6.11962e-07
6.13244e-07
6.14532e-07
6.15825e-07
6.17124e-07
6.18428e-07
6.19738e-07
6.21053e-07
6.22374e-07
6.23701e-07
6.25033e-07
6.26371e-07
6.27715e-07
6.29065e-07
6.3042e-07
6.31781e-07
6.33149e-07
6.34522e-07
6.35901e-07
6.37286e-07
6.38677e-07
6.40071e-07
6.41463e-07
6.42872e-07
6.44288e-07
6.45709e-07
6.47137e-07
6.48571e-07
6.50011e-07
6.51458e-07
6.52911e-07
6.54371e-07
6.55837e-07
6.5731e-07
6.5879e-07
6.60276e-07
6.61769e-07
6.63269e-07
6.64776e-07
6.6629e-07
6.6781e-07
6.69338e-07
6.70873e-07
6.72415e-07
6.73964e-07
6.75521e-07
6.77084e-07
6.78656e-07
6.80234e-07
6.8182e-07
6.83414e-07
6.85015e-07
6.86624e-07
6.88241e-07
6.89865e-07
6.91497e-07
6.93138e-07
6.94786e-07
6.96442e-07
6.98106e-07
6.99778e-07
7.01458e-07
7.03147e-07
7.04843e-07
7.06548e-07
7.08262e-07
7.09983e-07
7.11713e-07
7.13452e-07
7.15199e-07
7.16955e-07
7.18719e-07
7.20492e-07
7.22273e-07
7.24063e-07
7.25862e-07
7.2767e-07
7.29487e-07
7.31312e-07
7.33147e-07
7.34983e-07
7.36821e-07
7.38683e-07
7.40553e-07
7.42432e-07
7.4432e-07
7.46218e-07
7.48124e-07
7.5004e-07
7.51966e-07
7.53901e-07
7.55846e-07
7.578e-07
7.59764e-07
7.61739e-07
7.63722e-07
7.65716e-07
7.6772e-07
7.69735e-07
7.71759e-07
7.73794e-07
7.75839e-07
7.77895e-07
7.79962e-07
7.8204e-07
7.84128e-07
7.86227e-07
7.88338e-07
7.9046e-07
7.92593e-07
7.94738e-07
7.96894e-07
7.99063e-07
8.01243e-07
8.03435e-07
8.05639e-07
8.07856e-07
8.10085e-07
8.12326e-07
8.14581e-07
8.16848e-07
8.19128e-07
8.21421e-07
8.23727e-07
8.26047e-07
8.2838e-07
8.30727e-07
8.33087e-07
8.35461e-07
8.37849e-07
8.40251e-07
8.42661e-07
8.45073e-07
8.47518e-07
8.49978e-07
8.52453e-07
8.54942e-07
8.57446e-07
8.59965e-07
8.62499e-07
8.65048e-07
8.67613e-07
8.70192e-07
8.72787e-07
8.75397e-07
8.78022e-07
8.80663e-07
8.8332e-07
8.85993e-07
8.88682e-07
8.91387e-07
8.94108e-07
8.96845e-07
8.99598e-07
9.02368e-07
9.05155e-07
9.07959e-07
9.10779e-07
9.13617e-07
9.16472e-07
9.19344e-07
9.22234e-07
9.25141e-07
9.28067e-07
9.31011e-07
9.33973e-07
9.36954e-07
9.39953e-07
9.42972e-07
9.4601e-07
9.49068e-07
9.52145e-07
9.55242e-07
9.5836e-07
9.61499e-07
9.64658e-07
9.67838e-07
9.7104e-07
9.74263e-07
9.77509e-07
9.80776e-07
9.84066e-07
9.87379e-07
9.90715e-07
9.94074e-07
9.97457e-07
1.00086e-06
1.00429e-06
1.00775e-06
1.01123e-06
1.01473e-06
1.01826e-06
1.02182e-06
1.0254e-06
1.029e-06
1.03264e-06
1.0363e-06
1.03998e-06
1.04369e-06
1.04743e-06
1.0512e-06
1.05499e-06
1.05882e-06
1.06267e-06
1.06654e-06
1.07045e-06
1.07439e-06
1.07835e-06
1.08235e-06
1.08637e-06
1.09042e-06
1.09451e-06
1.09862e-06
1.10276e-06
1.10694e-06
1.11115e-06
1.11538e-06
1.11965e-06
1.12395e-06
1.12828e-06
1.13265e-06
1.13703e-06
1.14143e-06
1.14589e-06
1.15039e-06
1.15491e-06
1.15948e-06
1.16407e-06
1.1687e-06
1.17337e-06
1.17807e-06
1.18281e-06
1.18759e-06
1.1924e-06
1.19725e-06
1.20213e-06
1.20706e-06
1.21202e-06
1.21702e-06
1.22206e-06
1.22715e-06
1.23227e-06
1.23743e-06
1.24264e-06
1.24789e-06
1.25318e-06
1.25852e-06
1.2639e-06
1.26933e-06
1.2748e-06
1.28032e-06
1.28589e-06
1.2915e-06
1.29717e-06
1.30288e-06
1.30865e-06
1.31447e-06
1.32034e-06
1.32626e-06
1.33224e-06
1.33827e-06
1.34436e-06
1.35051e-06
1.35671e-06
1.36298e-06
1.3693e-06
1.37568e-06
1.38213e-06
1.38864e-06
1.39521e-06
1.40185e-06
1.40855e-06
1.4153e-06
1.42209e-06
1.42899e-06
1.43596e-06
1.443e-06
1.45011e-06
1.4573e-06
1.46456e-06
1.47189e-06
1.47929e-06
1.48677e-06
1.49433e-06
1.50197e-06
1.50969e-06
1.51748e-06
1.52536e-06
1.53332e-06
1.54137e-06
1.5495e-06
1.55772e-06
1.56603e-06
1.57443e-06
1.58292e-06
1.5915e-06
1.60017e-06
1.60894e-06
1.61781e-06
1.62678e-06
1.63585e-06
1.64502e-06
1.65429e-06
1.66367e-06
1.67316e-06
1.68276e-06
1.69247e-06
1.70229e-06
1.71222e-06
1.72227e-06
1.73244e-06
1.74272e-06
1.75313e-06
1.76367e-06
1.77432e-06
1.78511e-06
1.79602e-06
1.80707e-06
1.81825e-06
1.82956e-06
1.84102e-06
1.85261e-06
1.86435e-06
1.87623e-06
1.88826e-06
1.90043e-06
1.91277e-06
1.92525e-06
1.9379e-06
1.95064e-06
1.96351e-06
1.97666e-06
1.98997e-06
2.00346e-06
2.01713e-06
2.03098e-06
2.04501e-06
2.05924e-06
2.07366e-06
2.08828e-06
2.1031e-06
2.11813e-06
2.13337e-06
2.14883e-06
2.16451e-06
2.18042e-06
2.19656e-06
2.21293e-06
2.22955e-06
2.24641e-06
2.26353e-06
2.28091e-06
2.29855e-06
2.31647e-06
2.33466e-06
2.35314e-06
2.37191e-06
2.39098e-06
2.41036e-06
2.43005e-06
2.45007e-06
2.47042e-06
2.49111e-06
2.51215e-06
2.53355e-06
2.55532e-06
2.57747e-06
2.60001e-06
2.62291e-06
2.64609e-06
2.66986e-06
2.69407e-06
2.71873e-06
2.74386e-06
2.76945e-06
2.79554e-06
2.82213e-06
2.84923e-06
2.87686e-06
2.90503e-06
2.93376e-06
2.96306e-06
2.99295e-06
3.02344e-06
3.05455e-06
3.08629e-06
3.11868e-06
3.15174e-06
3.18549e-06
3.21994e-06
3.25513e-06
3.29106e-06
3.32776e-06
3.36526e-06
3.40357e-06
3.44266e-06
3.48242e-06
3.52342e-06
3.56537e-06
3.60832e-06
3.6523e-06
3.69736e-06
3.74354e-06
3.7909e-06
3.83947e-06
3.88932e-06
3.94009e-06
3.99243e-06
4.04631e-06
4.10172e-06
4.15869e-06
4.21728e-06
4.27757e-06
4.33963e-06
4.40352e-06
4.46933e-06
4.53714e-06
4.60702e-06
4.67906e-06
4.75336e-06
4.83e-06
4.90909e-06
4.99074e-06
5.07505e-06
5.16216e-06
5.25219e-06
5.34528e-06
5.4412e-06
5.5401e-06
5.64327e-06
5.75015e-06
5.86098e-06
5.97599e-06
6.09544e-06
6.2196e-06
6.34879e-06
6.48333e-06
6.62359e-06
6.76997e-06
6.9229e-06
7.08288e-06
7.25043e-06
7.42616e-06
7.61071e-06
7.80478e-06
8.00752e-06
8.22214e-06
8.4493e-06
8.6896e-06
8.94402e-06
9.21371e-06
9.49998e-06
9.80427e-06
1.01282e-05
1.04734e-05
1.08422e-05
1.12367e-05
1.16597e-05
1.21144e-05
1.26045e-05
1.31341e-05
1.37083e-05
1.43329e-05
1.50146e-05
1.57614e-05
1.65825e-05
1.74893e-05
1.84958e-05
1.96139e-05
2.08614e-05
2.2273e-05
2.38736e-05
2.57046e-05
2.78201e-05
3.02926e-05
3.32228e-05
3.67471e-05
4.10459e-05
4.6458e-05
5.33592e-05
6.23603e-05
7.44558e-05
9.14606e-05
0.000117037
0.000159176
0.00023717
0.000405643
0.000844343
0.00220519
0.00702833
0.0279341
0.0654128
0.0844175
0.0938385
0.098513
0.100836
0.101991
0.102567
0.102853
0.102996
0.103068
0.103103
0.103121
0.10313
0.103135
0.103137
0.103138
)
;

boundaryField
{
    fixedWall
    {
        type            zeroGradient;
    }
    outlet
    {
        type            inletOutlet;
        inletValue      uniform 0;
        value           uniform 0.103138;
    }
    defaultFaces
    {
        type            empty;
    }
}


// ************************************************************************* //
