/*--------------------------------*- C++ -*----------------------------------*\
| =========                 |                                                 |
| \\      /  F ield         | OpenFOAM: The Open Source CFD Toolbox           |
|  \\    /   O peration     | Version:  2406                                  |
|   \\  /    A nd           | Website:  www.openfoam.com                      |
|    \\/     M anipulation  |                                                 |
\*---------------------------------------------------------------------------*/
FoamFile
{
    version     2.0;
    format      ascii;
    arch        "LSB;label=32;scalar=64";
    class       volScalarField;
    location    "6.1";
    object      Qdot;
}
// * * * * * * * * * * * * * * * * * * * * * * * * * * * * * * * * * * * * * //

dimensions      [1 -1 -3 0 0 0 0];

internalField   nonuniform List<scalar> 
1000
(
-9.7678e-08
-1.61817e-16
7.03972e-13
-2.42204e-08
1.07978e-07
5.47409e-07
2.3022e-06
7.37342e-06
2.01984e-05
4.87592e-05
0.000106016
0.000211205
0.000390996
0.000679653
0.00111904
0.00175762
0.00264888
0.00384914
0.0054153
0.00740174
0.00985824
0.0128271
0.016341
0.0204218
0.025079
0.0303092
0.0360963
0.0424118
0.0492157
0.0564582
0.0640811
0.0720195
0.0802037
0.0885616
0.09702
0.105507
0.113952
0.122291
0.130461
0.138408
0.146084
0.153447
0.160462
0.167103
0.173347
0.179183
0.1846
0.189599
0.19418
0.198353
0.202126
0.205516
0.208538
0.211213
0.213559
0.215599
0.217355
0.218849
0.220104
0.221141
0.221983
0.222649
0.22316
0.223533
0.223787
0.223939
0.224003
0.223993
0.223923
0.223805
0.223648
0.223463
0.223258
0.223042
0.22282
0.222599
0.222384
0.222179
0.221989
0.221816
0.221663
0.221533
0.221427
0.221346
0.221292
0.221265
0.221265
0.221294
0.221349
0.221433
0.221543
0.221681
0.221844
0.222032
0.222245
0.222482
0.222741
0.223023
0.223325
0.223648
0.223989
0.224349
0.224726
0.22512
0.225529
0.225952
0.226389
0.22684
0.227302
0.227776
0.22826
0.228754
0.229256
0.229767
0.230285
0.230813
0.231347
0.23189
0.232439
0.232993
0.233552
0.234117
0.234686
0.23526
0.235837
0.236419
0.237003
0.237591
0.238183
0.238777
0.239374
0.239973
0.240576
0.24118
0.241787
0.242396
0.243007
0.24362
0.244235
0.244852
0.245471
0.246091
0.246714
0.247338
0.247964
0.248592
0.249222
0.249853
0.250487
0.251121
0.251758
0.252397
0.253037
0.25368
0.254324
0.25497
0.255618
0.256267
0.256919
0.257573
0.258229
0.258887
0.259546
0.260208
0.260872
0.261539
0.262207
0.262878
0.26355
0.264225
0.264903
0.265582
0.266264
0.266948
0.267635
0.268324
0.269016
0.26971
0.270406
0.271102
0.271799
0.272504
0.273211
0.273921
0.274633
0.275348
0.276065
0.276785
0.277508
0.278233
0.278961
0.279692
0.280426
0.281162
0.281901
0.282643
0.283387
0.284135
0.284885
0.285638
0.286394
0.287153
0.287915
0.28868
0.289448
0.290218
0.290992
0.291769
0.292548
0.293331
0.294117
0.294906
0.295698
0.296493
0.297291
0.298092
0.298896
0.299704
0.300514
0.301328
0.302145
0.302966
0.303789
0.304616
0.305446
0.306279
0.307115
0.307955
0.308798
0.309645
0.310494
0.311348
0.312204
0.313064
0.313927
0.314794
0.315664
0.316538
0.317415
0.318295
0.319179
0.320067
0.320958
0.321853
0.322751
0.323653
0.324559
0.325468
0.32638
0.327297
0.328217
0.329141
0.330068
0.331
0.331935
0.332874
0.333816
0.334763
0.335713
0.336667
0.337626
0.338588
0.339554
0.340524
0.341497
0.342475
0.343457
0.344443
0.345434
0.346428
0.347426
0.348429
0.349436
0.350446
0.351462
0.352481
0.353505
0.354533
0.355565
0.356602
0.357643
0.358689
0.359739
0.360793
0.361852
0.362916
0.363984
0.365057
0.366134
0.367216
0.368303
0.369395
0.370491
0.371592
0.372698
0.373808
0.374924
0.376044
0.377168
0.37829
0.379425
0.380565
0.381711
0.382862
0.384017
0.385178
0.386344
0.387516
0.388692
0.389874
0.391061
0.392253
0.393451
0.394654
0.395863
0.397077
0.398296
0.399521
0.400752
0.401988
0.40323
0.404477
0.40573
0.406989
0.408253
0.409524
0.4108
0.412082
0.41337
0.414663
0.415963
0.417269
0.418581
0.419898
0.421222
0.422552
0.423888
0.42523
0.426579
0.427934
0.429295
0.430662
0.432036
0.433417
0.434803
0.436197
0.437596
0.439003
0.440416
0.441836
0.443262
0.444696
0.446136
0.447583
0.449037
0.450498
0.451966
0.453441
0.454923
0.456413
0.457909
0.459413
0.460925
0.462443
0.46397
0.465503
0.467045
0.468594
0.47015
0.471715
0.473287
0.474867
0.476456
0.478052
0.479656
0.481268
0.482889
0.484518
0.486155
0.487801
0.489455
0.491118
0.492789
0.494469
0.496158
0.497855
0.499562
0.501277
0.503002
0.504735
0.506478
0.508229
0.50999
0.511761
0.513541
0.51533
0.517129
0.518938
0.520756
0.522576
0.5244
0.526248
0.528106
0.529974
0.531853
0.533741
0.535639
0.537548
0.539466
0.541396
0.543335
0.545285
0.547245
0.549216
0.551198
0.55319
0.555193
0.557207
0.559232
0.561268
0.563314
0.565372
0.567441
0.569522
0.571613
0.573716
0.575831
0.577957
0.580094
0.582243
0.584404
0.586577
0.588761
0.590957
0.593166
0.595386
0.597619
0.599864
0.602121
0.604391
0.606673
0.608967
0.611274
0.613594
0.615926
0.618254
0.620612
0.622985
0.62537
0.627769
0.630182
0.632609
0.63505
0.637505
0.639975
0.642458
0.644956
0.647468
0.649995
0.652537
0.655093
0.657665
0.660251
0.662853
0.66547
0.668103
0.670751
0.673415
0.676095
0.678791
0.681503
0.684231
0.686976
0.689738
0.692516
0.695311
0.698123
0.700952
0.703799
0.706663
0.709544
0.712444
0.715361
0.718296
0.72125
0.724222
0.727212
0.730221
0.733249
0.736295
0.739361
0.742446
0.74555
0.748674
0.751818
0.754981
0.758165
0.761369
0.764593
0.767838
0.771103
0.77439
0.777697
0.781026
0.784376
0.787748
0.791141
0.794557
0.797994
0.801454
0.804936
0.808441
0.811969
0.81552
0.819086
0.822657
0.826277
0.829921
0.833589
0.837281
0.840998
0.84474
0.848506
0.852298
0.856115
0.859958
0.863827
0.867722
0.871644
0.875592
0.879567
0.88357
0.8876
0.891657
0.895743
0.899857
0.903999
0.908171
0.912371
0.916601
0.920861
0.925151
0.929471
0.933822
0.938204
0.942617
0.947061
0.951538
0.956046
0.960587
0.965161
0.969768
0.974408
0.979082
0.98379
0.988532
0.993309
0.998121
1.00297
1.00785
1.01277
1.01772
1.02272
1.02774
1.03281
1.03791
1.04305
1.04823
1.05345
1.0587
1.064
1.06933
1.07471
1.0801
1.08552
1.09101
1.09655
1.10213
1.10774
1.1134
1.11911
1.12485
1.13064
1.13648
1.14236
1.14828
1.15425
1.16026
1.16632
1.17243
1.17859
1.18479
1.19104
1.19734
1.20369
1.21009
1.21654
1.22304
1.22959
1.2362
1.24286
1.24957
1.25633
1.26315
1.27003
1.27696
1.28395
1.291
1.29811
1.30527
1.3125
1.31978
1.32713
1.33454
1.34201
1.34954
1.35714
1.36481
1.37254
1.38033
1.3882
1.39613
1.40413
1.4122
1.42032
1.42847
1.43675
1.44511
1.45354
1.46205
1.47063
1.47929
1.48803
1.49684
1.50573
1.5147
1.52375
1.53289
1.5421
1.55139
1.56077
1.57024
1.57978
1.58942
1.59914
1.60895
1.61885
1.62884
1.63892
1.6491
1.65936
1.66972
1.68018
1.69073
1.70139
1.71214
1.72299
1.73395
1.74501
1.75617
1.76744
1.77882
1.79031
1.80191
1.81362
1.82545
1.83739
1.84945
1.86163
1.87394
1.88636
1.89892
1.9116
1.9244
1.93734
1.95042
1.96362
1.97697
1.99045
2.00407
2.01784
2.03175
2.04581
2.06001
2.07437
2.08888
2.10355
2.11837
2.13335
2.1485
2.16381
2.17928
2.19492
2.21074
2.22672
2.24288
2.25922
2.27574
2.29245
2.30933
2.32641
2.34367
2.36113
2.37878
2.39664
2.41469
2.43294
2.4514
2.47007
2.48896
2.50805
2.52737
2.5469
2.56666
2.5866
2.60666
2.6271
2.64778
2.66869
2.68985
2.71125
2.73291
2.75482
2.77699
2.79942
2.82212
2.84508
2.86833
2.89185
2.91565
2.93975
2.96414
2.98882
3.01381
3.0391
3.06471
3.09064
3.11689
3.14348
3.1704
3.19766
3.22527
3.25324
3.28157
3.31027
3.33935
3.36881
3.39866
3.42891
3.45956
3.49064
3.52213
3.55405
3.58641
3.61922
3.65248
3.68621
3.72042
3.7551
3.79028
3.82596
3.86215
3.89886
3.9361
3.97388
4.01215
4.05076
4.09023
4.13029
4.17094
4.21219
4.25407
4.29657
4.33972
4.38352
4.428
4.47315
4.519
4.56556
4.61285
4.66087
4.70965
4.7592
4.80954
4.86068
4.91265
4.96546
5.01912
5.07366
5.1291
5.18546
5.24275
5.301
5.36024
5.42047
5.48173
5.54403
5.60741
5.67189
5.73748
5.80422
5.87213
5.94124
6.01157
6.08316
6.15603
6.23021
6.30573
6.38263
6.46092
6.54066
6.62186
6.70457
6.78882
6.87465
6.9621
7.0512
7.14199
7.23453
7.32885
7.42499
7.523
7.62239
7.72356
7.82749
7.93352
8.04168
8.15203
8.26463
8.37955
8.49684
8.61659
8.73885
8.8637
8.99121
9.12146
9.25454
9.39051
9.52948
9.67152
9.81672
9.96519
10.117
10.2723
10.4312
10.5937
10.76
10.9303
11.1046
11.283
11.4658
11.653
11.8448
12.0413
12.2428
12.4494
12.6612
12.8784
13.1013
13.3301
13.5649
13.8055
14.0512
14.3055
14.5667
14.8352
15.1112
15.395
15.687
15.9873
16.2965
16.6146
16.9422
17.2796
17.6271
17.9851
18.354
18.7343
19.1264
19.5307
19.9478
20.3782
20.8224
21.2809
21.7545
22.2437
22.7492
23.2716
23.8107
24.3657
24.9445
25.544
26.1653
26.8093
27.4772
28.1704
28.8902
29.6381
30.4156
31.2194
32.0544
32.9294
33.8406
34.7904
35.7808
36.8144
37.8937
39.0212
40.1998
41.4324
42.7224
44.073
45.4881
46.9715
48.5275
50.1606
51.8759
53.6788
55.5749
57.5708
59.6661
61.8656
64.2026
66.6708
69.2803
72.0423
74.9693
78.0748
81.3739
84.8834
88.6219
92.6103
96.8722
101.434
106.325
111.578
117.233
123.331
129.88
136.958
144.688
153.091
162.245
172.239
183.175
195.17
208.359
222.897
238.97
256.794
276.629
298.784
323.635
351.635
383.332
419.399
460.658
508.125
563.068
627.086
702.23
791.134
896.627
1023.81
1178.64
1369.49
1608.2
1911.93
2306.44
2830.91
3545.99
4564.46
6056.78
8326.83
11935.2
18032.3
29325.3
53004.6
109653
262534
744731
2.49089e+06
9.63102e+06
2.82231e+07
368026
1312.7
8.28577
0.192956
0.0168345
0.00393473
0.00172482
0.0010939
0.000853839
0.000746905
0.000695093
0.000668829
0.000655118
0.00064789
0.000644034
0.000641905
)
;

boundaryField
{
    fixedWall
    {
        type            calculated;
        value           uniform 0;
    }
    outlet
    {
        type            calculated;
        value           uniform 0;
    }
    defaultFaces
    {
        type            empty;
    }
}


// ************************************************************************* //
