/*--------------------------------*- C++ -*----------------------------------*\
| =========                 |                                                 |
| \\      /  F ield         | OpenFOAM: The Open Source CFD Toolbox           |
|  \\    /   O peration     | Version:  2406                                  |
|   \\  /    A nd           | Website:  www.openfoam.com                      |
|    \\/     M anipulation  |                                                 |
\*---------------------------------------------------------------------------*/
FoamFile
{
    version     2.0;
    format      ascii;
    arch        "LSB;label=32;scalar=64";
    class       volVectorField;
    location    "6.1";
    object      U;
}
// * * * * * * * * * * * * * * * * * * * * * * * * * * * * * * * * * * * * * //

dimensions      [0 1 -1 0 0 0 0];

internalField   nonuniform List<vector> 
1000
(
(-2.02839e-06 0 0)
(-9.93013e-06 0 0)
(-2.52163e-05 0 0)
(-4.54717e-05 0 0)
(-6.94214e-05 0 0)
(-9.63039e-05 0 0)
(-0.000125574 0 0)
(-0.000156794 0 0)
(-0.000189606 0 0)
(-0.000223723 0 0)
(-0.000258906 0 0)
(-0.000294957 0 0)
(-0.000331706 0 0)
(-0.000369013 0 0)
(-0.000406752 0 0)
(-0.000444815 0 0)
(-0.000483109 0 0)
(-0.000521549 0 0)
(-0.000560062 0 0)
(-0.000598582 0 0)
(-0.000637049 0 0)
(-0.00067541 0 0)
(-0.000713617 0 0)
(-0.000751627 0 0)
(-0.0007894 0 0)
(-0.0008269 0 0)
(-0.000864095 0 0)
(-0.000900953 0 0)
(-0.000937449 0 0)
(-0.000973558 0 0)
(-0.00100926 0 0)
(-0.00104452 0 0)
(-0.00107934 0 0)
(-0.00111369 0 0)
(-0.00114756 0 0)
(-0.00118093 0 0)
(-0.0012138 0 0)
(-0.00124614 0 0)
(-0.00127796 0 0)
(-0.00130924 0 0)
(-0.00133997 0 0)
(-0.00137015 0 0)
(-0.00139977 0 0)
(-0.00142882 0 0)
(-0.00145732 0 0)
(-0.00148524 0 0)
(-0.00151258 0 0)
(-0.00153936 0 0)
(-0.00156556 0 0)
(-0.00159119 0 0)
(-0.00161624 0 0)
(-0.00164072 0 0)
(-0.00166463 0 0)
(-0.00168797 0 0)
(-0.00171075 0 0)
(-0.00173296 0 0)
(-0.00175462 0 0)
(-0.00177572 0 0)
(-0.00179628 0 0)
(-0.00181629 0 0)
(-0.00183576 0 0)
(-0.0018547 0 0)
(-0.00187311 0 0)
(-0.00189101 0 0)
(-0.00190839 0 0)
(-0.00192526 0 0)
(-0.00194164 0 0)
(-0.00195753 0 0)
(-0.00197293 0 0)
(-0.00198786 0 0)
(-0.00200232 0 0)
(-0.00201633 0 0)
(-0.00202988 0 0)
(-0.00204299 0 0)
(-0.00205567 0 0)
(-0.00206792 0 0)
(-0.00207976 0 0)
(-0.00209119 0 0)
(-0.00210223 0 0)
(-0.00211287 0 0)
(-0.00212314 0 0)
(-0.00213304 0 0)
(-0.00214257 0 0)
(-0.00215176 0 0)
(-0.00216059 0 0)
(-0.0021691 0 0)
(-0.00217728 0 0)
(-0.00218514 0 0)
(-0.00219269 0 0)
(-0.00219995 0 0)
(-0.00220691 0 0)
(-0.0022136 0 0)
(-0.00222001 0 0)
(-0.00222615 0 0)
(-0.00223204 0 0)
(-0.00223767 0 0)
(-0.00224307 0 0)
(-0.00224823 0 0)
(-0.00225317 0 0)
(-0.00225789 0 0)
(-0.00226241 0 0)
(-0.00226671 0 0)
(-0.00227083 0 0)
(-0.00227475 0 0)
(-0.00227849 0 0)
(-0.00228206 0 0)
(-0.00228546 0 0)
(-0.0022887 0 0)
(-0.00229179 0 0)
(-0.00229473 0 0)
(-0.00229751 0 0)
(-0.00230014 0 0)
(-0.00230263 0 0)
(-0.00230502 0 0)
(-0.00230731 0 0)
(-0.00230949 0 0)
(-0.00231152 0 0)
(-0.00231344 0 0)
(-0.00231527 0 0)
(-0.00231701 0 0)
(-0.00231866 0 0)
(-0.00232022 0 0)
(-0.00232169 0 0)
(-0.00232309 0 0)
(-0.0023244 0 0)
(-0.00232565 0 0)
(-0.00232682 0 0)
(-0.00232793 0 0)
(-0.00232897 0 0)
(-0.00232996 0 0)
(-0.00233088 0 0)
(-0.00233176 0 0)
(-0.00233258 0 0)
(-0.00233335 0 0)
(-0.00233408 0 0)
(-0.00233476 0 0)
(-0.00233541 0 0)
(-0.00233601 0 0)
(-0.00233658 0 0)
(-0.00233711 0 0)
(-0.00233761 0 0)
(-0.00233808 0 0)
(-0.00233852 0 0)
(-0.00233893 0 0)
(-0.00233932 0 0)
(-0.00233968 0 0)
(-0.00234002 0 0)
(-0.00234033 0 0)
(-0.00234063 0 0)
(-0.00234091 0 0)
(-0.00234117 0 0)
(-0.00234141 0 0)
(-0.00234164 0 0)
(-0.00234185 0 0)
(-0.00234205 0 0)
(-0.00234224 0 0)
(-0.00234241 0 0)
(-0.00234257 0 0)
(-0.00234272 0 0)
(-0.00234287 0 0)
(-0.002343 0 0)
(-0.00234312 0 0)
(-0.00234324 0 0)
(-0.00234335 0 0)
(-0.00234345 0 0)
(-0.00234354 0 0)
(-0.00234363 0 0)
(-0.00234371 0 0)
(-0.00234379 0 0)
(-0.00234386 0 0)
(-0.00234393 0 0)
(-0.002344 0 0)
(-0.00234406 0 0)
(-0.00234411 0 0)
(-0.00234417 0 0)
(-0.00234422 0 0)
(-0.00234427 0 0)
(-0.00234431 0 0)
(-0.00234435 0 0)
(-0.00234439 0 0)
(-0.00234443 0 0)
(-0.00234447 0 0)
(-0.0023445 0 0)
(-0.00234454 0 0)
(-0.00234457 0 0)
(-0.0023446 0 0)
(-0.00234462 0 0)
(-0.00234465 0 0)
(-0.00234468 0 0)
(-0.0023447 0 0)
(-0.00234473 0 0)
(-0.00234475 0 0)
(-0.00234477 0 0)
(-0.0023448 0 0)
(-0.00234482 0 0)
(-0.00234484 0 0)
(-0.00234486 0 0)
(-0.00234488 0 0)
(-0.00234489 0 0)
(-0.00234491 0 0)
(-0.00234493 0 0)
(-0.00234495 0 0)
(-0.00234496 0 0)
(-0.00234498 0 0)
(-0.002345 0 0)
(-0.00234501 0 0)
(-0.00234503 0 0)
(-0.00234504 0 0)
(-0.00234506 0 0)
(-0.00234507 0 0)
(-0.00234509 0 0)
(-0.0023451 0 0)
(-0.00234512 0 0)
(-0.00234513 0 0)
(-0.00234514 0 0)
(-0.00234516 0 0)
(-0.00234517 0 0)
(-0.00234518 0 0)
(-0.0023452 0 0)
(-0.00234521 0 0)
(-0.00234522 0 0)
(-0.00234523 0 0)
(-0.00234524 0 0)
(-0.00234525 0 0)
(-0.00234527 0 0)
(-0.00234528 0 0)
(-0.00234529 0 0)
(-0.0023453 0 0)
(-0.00234531 0 0)
(-0.00234532 0 0)
(-0.00234533 0 0)
(-0.00234534 0 0)
(-0.00234535 0 0)
(-0.00234536 0 0)
(-0.00234537 0 0)
(-0.00234538 0 0)
(-0.00234539 0 0)
(-0.0023454 0 0)
(-0.00234541 0 0)
(-0.00234542 0 0)
(-0.00234543 0 0)
(-0.00234544 0 0)
(-0.00234544 0 0)
(-0.00234545 0 0)
(-0.00234546 0 0)
(-0.00234547 0 0)
(-0.00234548 0 0)
(-0.00234548 0 0)
(-0.00234549 0 0)
(-0.0023455 0 0)
(-0.00234551 0 0)
(-0.00234551 0 0)
(-0.00234552 0 0)
(-0.00234553 0 0)
(-0.00234554 0 0)
(-0.00234554 0 0)
(-0.00234555 0 0)
(-0.00234556 0 0)
(-0.00234556 0 0)
(-0.00234557 0 0)
(-0.00234558 0 0)
(-0.00234558 0 0)
(-0.00234559 0 0)
(-0.00234559 0 0)
(-0.0023456 0 0)
(-0.00234561 0 0)
(-0.00234561 0 0)
(-0.00234562 0 0)
(-0.00234562 0 0)
(-0.00234563 0 0)
(-0.00234564 0 0)
(-0.00234564 0 0)
(-0.00234565 0 0)
(-0.00234565 0 0)
(-0.00234566 0 0)
(-0.00234566 0 0)
(-0.00234567 0 0)
(-0.00234567 0 0)
(-0.00234568 0 0)
(-0.00234568 0 0)
(-0.00234569 0 0)
(-0.00234569 0 0)
(-0.0023457 0 0)
(-0.0023457 0 0)
(-0.00234571 0 0)
(-0.00234571 0 0)
(-0.00234572 0 0)
(-0.00234573 0 0)
(-0.00234573 0 0)
(-0.00234574 0 0)
(-0.00234574 0 0)
(-0.00234575 0 0)
(-0.00234575 0 0)
(-0.00234575 0 0)
(-0.00234576 0 0)
(-0.00234576 0 0)
(-0.00234577 0 0)
(-0.00234577 0 0)
(-0.00234578 0 0)
(-0.00234578 0 0)
(-0.00234579 0 0)
(-0.00234579 0 0)
(-0.0023458 0 0)
(-0.0023458 0 0)
(-0.00234581 0 0)
(-0.00234581 0 0)
(-0.00234582 0 0)
(-0.00234582 0 0)
(-0.00234583 0 0)
(-0.00234583 0 0)
(-0.00234584 0 0)
(-0.00234584 0 0)
(-0.00234585 0 0)
(-0.00234585 0 0)
(-0.00234586 0 0)
(-0.00234586 0 0)
(-0.00234587 0 0)
(-0.00234587 0 0)
(-0.00234588 0 0)
(-0.00234588 0 0)
(-0.00234589 0 0)
(-0.00234589 0 0)
(-0.0023459 0 0)
(-0.0023459 0 0)
(-0.00234591 0 0)
(-0.00234591 0 0)
(-0.00234592 0 0)
(-0.00234592 0 0)
(-0.00234593 0 0)
(-0.00234593 0 0)
(-0.00234594 0 0)
(-0.00234594 0 0)
(-0.00234595 0 0)
(-0.00234596 0 0)
(-0.00234596 0 0)
(-0.00234597 0 0)
(-0.00234597 0 0)
(-0.00234598 0 0)
(-0.00234598 0 0)
(-0.00234599 0 0)
(-0.00234599 0 0)
(-0.002346 0 0)
(-0.00234601 0 0)
(-0.00234601 0 0)
(-0.00234602 0 0)
(-0.00234602 0 0)
(-0.00234603 0 0)
(-0.00234604 0 0)
(-0.00234604 0 0)
(-0.00234605 0 0)
(-0.00234606 0 0)
(-0.00234606 0 0)
(-0.00234607 0 0)
(-0.00234608 0 0)
(-0.00234608 0 0)
(-0.00234609 0 0)
(-0.0023461 0 0)
(-0.0023461 0 0)
(-0.00234611 0 0)
(-0.00234612 0 0)
(-0.00234613 0 0)
(-0.00234613 0 0)
(-0.00234614 0 0)
(-0.00234615 0 0)
(-0.00234616 0 0)
(-0.00234617 0 0)
(-0.00234617 0 0)
(-0.00234618 0 0)
(-0.00234619 0 0)
(-0.0023462 0 0)
(-0.00234621 0 0)
(-0.00234622 0 0)
(-0.00234622 0 0)
(-0.00234623 0 0)
(-0.00234624 0 0)
(-0.00234625 0 0)
(-0.00234626 0 0)
(-0.00234627 0 0)
(-0.00234628 0 0)
(-0.00234629 0 0)
(-0.0023463 0 0)
(-0.00234631 0 0)
(-0.00234632 0 0)
(-0.00234632 0 0)
(-0.00234633 0 0)
(-0.00234634 0 0)
(-0.00234635 0 0)
(-0.00234636 0 0)
(-0.00234637 0 0)
(-0.00234638 0 0)
(-0.00234639 0 0)
(-0.0023464 0 0)
(-0.00234641 0 0)
(-0.00234642 0 0)
(-0.00234642 0 0)
(-0.00234643 0 0)
(-0.00234644 0 0)
(-0.00234645 0 0)
(-0.00234646 0 0)
(-0.00234647 0 0)
(-0.00234648 0 0)
(-0.00234648 0 0)
(-0.00234649 0 0)
(-0.0023465 0 0)
(-0.00234651 0 0)
(-0.00234651 0 0)
(-0.00234652 0 0)
(-0.00234653 0 0)
(-0.00234653 0 0)
(-0.00234654 0 0)
(-0.00234655 0 0)
(-0.00234655 0 0)
(-0.00234656 0 0)
(-0.00234656 0 0)
(-0.00234657 0 0)
(-0.00234657 0 0)
(-0.00234658 0 0)
(-0.00234658 0 0)
(-0.00234659 0 0)
(-0.00234659 0 0)
(-0.00234659 0 0)
(-0.0023466 0 0)
(-0.0023466 0 0)
(-0.0023466 0 0)
(-0.00234661 0 0)
(-0.00234661 0 0)
(-0.00234661 0 0)
(-0.00234661 0 0)
(-0.00234661 0 0)
(-0.00234662 0 0)
(-0.00234662 0 0)
(-0.00234662 0 0)
(-0.00234662 0 0)
(-0.00234662 0 0)
(-0.00234662 0 0)
(-0.00234662 0 0)
(-0.00234662 0 0)
(-0.00234662 0 0)
(-0.00234662 0 0)
(-0.00234662 0 0)
(-0.00234662 0 0)
(-0.00234662 0 0)
(-0.00234662 0 0)
(-0.00234662 0 0)
(-0.00234662 0 0)
(-0.00234662 0 0)
(-0.00234662 0 0)
(-0.00234662 0 0)
(-0.00234662 0 0)
(-0.00234661 0 0)
(-0.00234661 0 0)
(-0.00234661 0 0)
(-0.00234661 0 0)
(-0.00234661 0 0)
(-0.00234661 0 0)
(-0.00234661 0 0)
(-0.00234661 0 0)
(-0.00234661 0 0)
(-0.00234661 0 0)
(-0.00234661 0 0)
(-0.00234661 0 0)
(-0.00234661 0 0)
(-0.00234661 0 0)
(-0.00234661 0 0)
(-0.00234661 0 0)
(-0.00234661 0 0)
(-0.00234661 0 0)
(-0.00234661 0 0)
(-0.00234661 0 0)
(-0.00234661 0 0)
(-0.00234661 0 0)
(-0.00234661 0 0)
(-0.00234661 0 0)
(-0.00234661 0 0)
(-0.00234661 0 0)
(-0.00234661 0 0)
(-0.00234661 0 0)
(-0.00234661 0 0)
(-0.00234661 0 0)
(-0.00234661 0 0)
(-0.00234661 0 0)
(-0.00234661 0 0)
(-0.00234661 0 0)
(-0.00234661 0 0)
(-0.00234661 0 0)
(-0.00234661 0 0)
(-0.00234661 0 0)
(-0.00234661 0 0)
(-0.00234661 0 0)
(-0.00234661 0 0)
(-0.00234661 0 0)
(-0.00234661 0 0)
(-0.00234661 0 0)
(-0.00234661 0 0)
(-0.00234661 0 0)
(-0.00234661 0 0)
(-0.00234661 0 0)
(-0.00234661 0 0)
(-0.00234661 0 0)
(-0.00234661 0 0)
(-0.00234661 0 0)
(-0.00234661 0 0)
(-0.00234661 0 0)
(-0.00234661 0 0)
(-0.00234661 0 0)
(-0.00234661 0 0)
(-0.00234661 0 0)
(-0.00234661 0 0)
(-0.0023466 0 0)
(-0.0023466 0 0)
(-0.0023466 0 0)
(-0.0023466 0 0)
(-0.0023466 0 0)
(-0.0023466 0 0)
(-0.0023466 0 0)
(-0.00234659 0 0)
(-0.00234659 0 0)
(-0.00234659 0 0)
(-0.00234659 0 0)
(-0.00234659 0 0)
(-0.00234659 0 0)
(-0.00234658 0 0)
(-0.00234658 0 0)
(-0.00234658 0 0)
(-0.00234658 0 0)
(-0.00234658 0 0)
(-0.00234657 0 0)
(-0.00234657 0 0)
(-0.00234657 0 0)
(-0.00234657 0 0)
(-0.00234656 0 0)
(-0.00234656 0 0)
(-0.00234656 0 0)
(-0.00234656 0 0)
(-0.00234656 0 0)
(-0.00234655 0 0)
(-0.00234655 0 0)
(-0.00234655 0 0)
(-0.00234655 0 0)
(-0.00234654 0 0)
(-0.00234654 0 0)
(-0.00234654 0 0)
(-0.00234654 0 0)
(-0.00234653 0 0)
(-0.00234653 0 0)
(-0.00234653 0 0)
(-0.00234652 0 0)
(-0.00234652 0 0)
(-0.00234651 0 0)
(-0.00234651 0 0)
(-0.00234651 0 0)
(-0.0023465 0 0)
(-0.0023465 0 0)
(-0.00234649 0 0)
(-0.00234649 0 0)
(-0.00234648 0 0)
(-0.00234647 0 0)
(-0.00234647 0 0)
(-0.00234646 0 0)
(-0.00234645 0 0)
(-0.00234645 0 0)
(-0.00234644 0 0)
(-0.00234643 0 0)
(-0.00234642 0 0)
(-0.00234642 0 0)
(-0.00234641 0 0)
(-0.0023464 0 0)
(-0.00234639 0 0)
(-0.00234638 0 0)
(-0.00234637 0 0)
(-0.00234636 0 0)
(-0.00234635 0 0)
(-0.00234634 0 0)
(-0.00234633 0 0)
(-0.00234632 0 0)
(-0.00234631 0 0)
(-0.00234629 0 0)
(-0.00234628 0 0)
(-0.00234627 0 0)
(-0.00234626 0 0)
(-0.00234625 0 0)
(-0.00234623 0 0)
(-0.00234622 0 0)
(-0.00234621 0 0)
(-0.0023462 0 0)
(-0.00234618 0 0)
(-0.00234617 0 0)
(-0.00234616 0 0)
(-0.00234615 0 0)
(-0.00234614 0 0)
(-0.00234612 0 0)
(-0.00234611 0 0)
(-0.0023461 0 0)
(-0.00234609 0 0)
(-0.00234608 0 0)
(-0.00234607 0 0)
(-0.00234606 0 0)
(-0.00234605 0 0)
(-0.00234604 0 0)
(-0.00234603 0 0)
(-0.00234602 0 0)
(-0.00234601 0 0)
(-0.002346 0 0)
(-0.00234599 0 0)
(-0.00234598 0 0)
(-0.00234598 0 0)
(-0.00234597 0 0)
(-0.00234596 0 0)
(-0.00234596 0 0)
(-0.00234595 0 0)
(-0.00234594 0 0)
(-0.00234594 0 0)
(-0.00234593 0 0)
(-0.00234593 0 0)
(-0.00234592 0 0)
(-0.00234591 0 0)
(-0.00234591 0 0)
(-0.0023459 0 0)
(-0.0023459 0 0)
(-0.00234589 0 0)
(-0.00234589 0 0)
(-0.00234588 0 0)
(-0.00234588 0 0)
(-0.00234587 0 0)
(-0.00234586 0 0)
(-0.00234586 0 0)
(-0.00234585 0 0)
(-0.00234585 0 0)
(-0.00234584 0 0)
(-0.00234583 0 0)
(-0.00234582 0 0)
(-0.00234582 0 0)
(-0.00234581 0 0)
(-0.0023458 0 0)
(-0.00234579 0 0)
(-0.00234578 0 0)
(-0.00234577 0 0)
(-0.00234576 0 0)
(-0.00234575 0 0)
(-0.00234574 0 0)
(-0.00234573 0 0)
(-0.00234571 0 0)
(-0.0023457 0 0)
(-0.00234569 0 0)
(-0.00234567 0 0)
(-0.00234566 0 0)
(-0.00234565 0 0)
(-0.00234563 0 0)
(-0.00234562 0 0)
(-0.0023456 0 0)
(-0.00234559 0 0)
(-0.00234557 0 0)
(-0.00234556 0 0)
(-0.00234554 0 0)
(-0.00234553 0 0)
(-0.00234551 0 0)
(-0.00234549 0 0)
(-0.00234548 0 0)
(-0.00234546 0 0)
(-0.00234545 0 0)
(-0.00234543 0 0)
(-0.00234542 0 0)
(-0.0023454 0 0)
(-0.00234539 0 0)
(-0.00234537 0 0)
(-0.00234536 0 0)
(-0.00234535 0 0)
(-0.00234533 0 0)
(-0.00234532 0 0)
(-0.00234531 0 0)
(-0.00234529 0 0)
(-0.00234528 0 0)
(-0.00234527 0 0)
(-0.00234526 0 0)
(-0.00234525 0 0)
(-0.00234523 0 0)
(-0.00234522 0 0)
(-0.00234521 0 0)
(-0.0023452 0 0)
(-0.00234519 0 0)
(-0.00234518 0 0)
(-0.00234517 0 0)
(-0.00234516 0 0)
(-0.00234514 0 0)
(-0.00234513 0 0)
(-0.00234512 0 0)
(-0.00234511 0 0)
(-0.0023451 0 0)
(-0.00234508 0 0)
(-0.00234507 0 0)
(-0.00234506 0 0)
(-0.00234504 0 0)
(-0.00234503 0 0)
(-0.00234501 0 0)
(-0.00234499 0 0)
(-0.00234498 0 0)
(-0.00234496 0 0)
(-0.00234494 0 0)
(-0.00234492 0 0)
(-0.0023449 0 0)
(-0.00234488 0 0)
(-0.00234486 0 0)
(-0.00234484 0 0)
(-0.00234481 0 0)
(-0.00234479 0 0)
(-0.00234476 0 0)
(-0.00234474 0 0)
(-0.00234471 0 0)
(-0.00234468 0 0)
(-0.00234465 0 0)
(-0.00234462 0 0)
(-0.00234459 0 0)
(-0.00234456 0 0)
(-0.00234453 0 0)
(-0.0023445 0 0)
(-0.00234446 0 0)
(-0.00234443 0 0)
(-0.00234439 0 0)
(-0.00234436 0 0)
(-0.00234432 0 0)
(-0.00234429 0 0)
(-0.00234425 0 0)
(-0.00234421 0 0)
(-0.00234418 0 0)
(-0.00234414 0 0)
(-0.0023441 0 0)
(-0.00234407 0 0)
(-0.00234403 0 0)
(-0.00234399 0 0)
(-0.00234396 0 0)
(-0.00234392 0 0)
(-0.00234389 0 0)
(-0.00234385 0 0)
(-0.00234382 0 0)
(-0.00234379 0 0)
(-0.00234375 0 0)
(-0.00234372 0 0)
(-0.00234369 0 0)
(-0.00234366 0 0)
(-0.00234363 0 0)
(-0.00234361 0 0)
(-0.00234358 0 0)
(-0.00234356 0 0)
(-0.00234353 0 0)
(-0.00234351 0 0)
(-0.00234349 0 0)
(-0.00234347 0 0)
(-0.00234345 0 0)
(-0.00234343 0 0)
(-0.00234342 0 0)
(-0.0023434 0 0)
(-0.00234339 0 0)
(-0.00234337 0 0)
(-0.00234336 0 0)
(-0.00234335 0 0)
(-0.00234334 0 0)
(-0.00234333 0 0)
(-0.00234332 0 0)
(-0.00234331 0 0)
(-0.0023433 0 0)
(-0.00234329 0 0)
(-0.00234329 0 0)
(-0.00234328 0 0)
(-0.00234328 0 0)
(-0.00234327 0 0)
(-0.00234326 0 0)
(-0.00234325 0 0)
(-0.00234325 0 0)
(-0.00234324 0 0)
(-0.00234323 0 0)
(-0.00234323 0 0)
(-0.00234322 0 0)
(-0.0023432 0 0)
(-0.0023432 0 0)
(-0.00234319 0 0)
(-0.00234318 0 0)
(-0.00234316 0 0)
(-0.00234315 0 0)
(-0.00234314 0 0)
(-0.00234312 0 0)
(-0.00234311 0 0)
(-0.00234309 0 0)
(-0.00234308 0 0)
(-0.00234306 0 0)
(-0.00234304 0 0)
(-0.00234302 0 0)
(-0.00234301 0 0)
(-0.00234298 0 0)
(-0.00234296 0 0)
(-0.00234294 0 0)
(-0.00234292 0 0)
(-0.00234289 0 0)
(-0.00234287 0 0)
(-0.00234284 0 0)
(-0.00234281 0 0)
(-0.00234279 0 0)
(-0.00234275 0 0)
(-0.00234272 0 0)
(-0.00234269 0 0)
(-0.00234266 0 0)
(-0.00234262 0 0)
(-0.00234258 0 0)
(-0.00234254 0 0)
(-0.0023425 0 0)
(-0.00234246 0 0)
(-0.00234242 0 0)
(-0.00234237 0 0)
(-0.00234233 0 0)
(-0.00234228 0 0)
(-0.00234223 0 0)
(-0.00234218 0 0)
(-0.00234212 0 0)
(-0.00234207 0 0)
(-0.00234201 0 0)
(-0.00234196 0 0)
(-0.0023419 0 0)
(-0.00234184 0 0)
(-0.00234178 0 0)
(-0.00234172 0 0)
(-0.00234166 0 0)
(-0.0023416 0 0)
(-0.00234153 0 0)
(-0.00234147 0 0)
(-0.00234141 0 0)
(-0.00234135 0 0)
(-0.00234129 0 0)
(-0.00234122 0 0)
(-0.00234116 0 0)
(-0.0023411 0 0)
(-0.00234104 0 0)
(-0.00234098 0 0)
(-0.00234093 0 0)
(-0.00234087 0 0)
(-0.00234081 0 0)
(-0.00234076 0 0)
(-0.0023407 0 0)
(-0.00234065 0 0)
(-0.0023406 0 0)
(-0.00234054 0 0)
(-0.00234049 0 0)
(-0.00234045 0 0)
(-0.0023404 0 0)
(-0.00234035 0 0)
(-0.0023403 0 0)
(-0.00234026 0 0)
(-0.00234021 0 0)
(-0.00234017 0 0)
(-0.00234013 0 0)
(-0.00234009 0 0)
(-0.00234005 0 0)
(-0.00234001 0 0)
(-0.00233997 0 0)
(-0.00233994 0 0)
(-0.0023399 0 0)
(-0.00233987 0 0)
(-0.00233984 0 0)
(-0.00233981 0 0)
(-0.00233979 0 0)
(-0.00233976 0 0)
(-0.00233974 0 0)
(-0.00233972 0 0)
(-0.00233969 0 0)
(-0.00233968 0 0)
(-0.00233965 0 0)
(-0.00233964 0 0)
(-0.00233962 0 0)
(-0.00233959 0 0)
(-0.00233958 0 0)
(-0.00233955 0 0)
(-0.00233953 0 0)
(-0.0023395 0 0)
(-0.00233947 0 0)
(-0.00233943 0 0)
(-0.00233939 0 0)
(-0.00233935 0 0)
(-0.0023393 0 0)
(-0.00233924 0 0)
(-0.00233918 0 0)
(-0.00233911 0 0)
(-0.00233903 0 0)
(-0.00233895 0 0)
(-0.00233887 0 0)
(-0.00233877 0 0)
(-0.00233868 0 0)
(-0.00233858 0 0)
(-0.00233847 0 0)
(-0.00233837 0 0)
(-0.00233826 0 0)
(-0.00233815 0 0)
(-0.00233805 0 0)
(-0.00233795 0 0)
(-0.00233785 0 0)
(-0.00233775 0 0)
(-0.00233766 0 0)
(-0.00233758 0 0)
(-0.0023375 0 0)
(-0.00233743 0 0)
(-0.00233737 0 0)
(-0.00233731 0 0)
(-0.00233727 0 0)
(-0.00233723 0 0)
(-0.00233719 0 0)
(-0.00233716 0 0)
(-0.00233713 0 0)
(-0.0023371 0 0)
(-0.00233708 0 0)
(-0.00233705 0 0)
(-0.00233701 0 0)
(-0.00233697 0 0)
(-0.00233692 0 0)
(-0.00233685 0 0)
(-0.00233677 0 0)
(-0.00233669 0 0)
(-0.00233654 0 0)
(-0.00233642 0 0)
(-0.00233629 0 0)
(-0.00233609 0 0)
(-0.00233591 0 0)
(-0.00233569 0 0)
(-0.00233548 0 0)
(-0.00233522 0 0)
(-0.00233497 0 0)
(-0.00233472 0 0)
(-0.00233443 0 0)
(-0.00233416 0 0)
(-0.0023339 0 0)
(-0.00233362 0 0)
(-0.00233337 0 0)
(-0.00233312 0 0)
(-0.00233287 0 0)
(-0.0023327 0 0)
(-0.00233246 0 0)
(-0.00233231 0 0)
(-0.00233219 0 0)
(-0.00233206 0 0)
(-0.00233198 0 0)
(-0.00233193 0 0)
(-0.00233191 0 0)
(-0.00233191 0 0)
(-0.00233194 0 0)
(-0.00233197 0 0)
(-0.00233203 0 0)
(-0.00233206 0 0)
(-0.0023321 0 0)
(-0.0023321 0 0)
(-0.00233202 0 0)
(-0.00233192 0 0)
(-0.00233174 0 0)
(-0.00233144 0 0)
(-0.00233105 0 0)
(-0.00233057 0 0)
(-0.00232997 0 0)
(-0.0023293 0 0)
(-0.00232853 0 0)
(-0.0023277 0 0)
(-0.00232682 0 0)
(-0.00232587 0 0)
(-0.00232487 0 0)
(-0.00232379 0 0)
(-0.00232261 0 0)
(-0.0023213 0 0)
(-0.00231983 0 0)
(-0.00231814 0 0)
(-0.00231622 0 0)
(-0.00231404 0 0)
(-0.00231158 0 0)
(-0.00230886 0 0)
(-0.00230591 0 0)
(-0.00230281 0 0)
(-0.00229965 0 0)
(-0.0022966 0 0)
(-0.00229374 0 0)
(-0.00229084 0 0)
(-0.00228667 0 0)
(-0.00227905 0 0)
(-0.0022618 0 0)
(-0.00224251 0 0)
(-0.00217125 0 0)
(-0.00211942 0 0)
(-0.00218239 0 0)
(-0.00224728 0 0)
(-0.00428914 0 0)
(-0.0033955 0 0)
(0.0202561 0 0)
(0.0581744 0 0)
(0.0837323 0 0)
(0.0967315 0 0)
(0.103152 0 0)
(0.106152 0 0)
(0.107528 0 0)
(0.10823 0 0)
(0.108546 0 0)
(0.108733 0 0)
(0.108792 0 0)
(0.108905 0 0)
(0.108928 0 0)
(0.108848 0 0)
(0.108909 0 0)
(0.10899 0 0)
(0.108901 0 0)
)
;

boundaryField
{
    fixedWall
    {
        type            fixedValue;
        value           uniform (0 0 0);
    }
    outlet
    {
        type            pressureInletOutletVelocity;
        value           uniform (0.108901 0 0);
    }
    defaultFaces
    {
        type            empty;
    }
}


// ************************************************************************* //
