/*--------------------------------*- C++ -*----------------------------------*\
| =========                 |                                                 |
| \\      /  F ield         | OpenFOAM: The Open Source CFD Toolbox           |
|  \\    /   O peration     | Version:  2406                                  |
|   \\  /    A nd           | Website:  www.openfoam.com                      |
|    \\/     M anipulation  |                                                 |
\*---------------------------------------------------------------------------*/
FoamFile
{
    version     2.0;
    format      ascii;
    arch        "LSB;label=32;scalar=64";
    class       surfaceScalarField;
    location    "0.6";
    object      phi;
}
// * * * * * * * * * * * * * * * * * * * * * * * * * * * * * * * * * * * * * //

dimensions      [1 0 -1 0 0 0 0];

oriented        oriented;

internalField   nonuniform List<scalar> 
999
(
-1.83706e-06
-4.06428e-06
-6.20004e-06
-8.18672e-06
-1.00274e-05
-1.17348e-05
-1.33214e-05
-1.47977e-05
-1.61722e-05
-1.74518e-05
-1.8642e-05
-1.97474e-05
-2.0772e-05
-2.17189e-05
-2.25912e-05
-2.33917e-05
-2.4123e-05
-2.47875e-05
-2.53879e-05
-2.59267e-05
-2.64067e-05
-2.68307e-05
-2.72005e-05
-2.75216e-05
-2.77961e-05
-2.80274e-05
-2.8219e-05
-2.83744e-05
-2.84973e-05
-2.85912e-05
-2.86595e-05
-2.87058e-05
-2.87331e-05
-2.87447e-05
-2.87432e-05
-2.87314e-05
-2.87115e-05
-2.86856e-05
-2.86555e-05
-2.86228e-05
-2.85887e-05
-2.85543e-05
-2.85203e-05
-2.84875e-05
-2.84563e-05
-2.84268e-05
-2.83995e-05
-2.83742e-05
-2.8351e-05
-2.83298e-05
-2.83104e-05
-2.82928e-05
-2.82767e-05
-2.8262e-05
-2.82485e-05
-2.8236e-05
-2.82244e-05
-2.82136e-05
-2.82035e-05
-2.8194e-05
-2.81851e-05
-2.81768e-05
-2.81689e-05
-2.81616e-05
-2.81547e-05
-2.81481e-05
-2.81419e-05
-2.81359e-05
-2.81298e-05
-2.81236e-05
-2.81168e-05
-2.81092e-05
-2.81005e-05
-2.80902e-05
-2.80782e-05
-2.80645e-05
-2.80496e-05
-2.80341e-05
-2.80192e-05
-2.80056e-05
-2.79932e-05
-2.79791e-05
-2.79563e-05
-2.79119e-05
-2.78226e-05
-2.76338e-05
-2.71738e-05
-2.58492e-05
-2.1626e-05
-7.17464e-06
5.62931e-05
0.00018403
0.0003322
0.000476424
0.000592806
0.000673305
0.00072335
0.000752457
0.000768735
0.000777637
0.000782447
0.000785028
0.00078641
0.00078715
0.000787548
0.000787764
0.000787884
0.000787952
0.000787993
0.00078802
0.000788038
0.000788053
0.000788066
0.000788077
0.000788088
0.000788099
0.000788109
0.00078812
0.00078813
0.00078814
0.00078815
0.000788161
0.000788171
0.000788181
0.000788191
0.000788202
0.000788212
0.000788222
0.000788232
0.000788242
0.000788253
0.000788263
0.000788273
0.000788283
0.000788293
0.000788304
0.000788314
0.000788324
0.000788334
0.000788344
0.000788354
0.000788365
0.000788375
0.000788385
0.000788395
0.000788405
0.000788416
0.000788426
0.000788436
0.000788446
0.000788456
0.000788466
0.000788477
0.000788487
0.000788497
0.000788507
0.000788517
0.000788527
0.000788537
0.000788548
0.000788558
0.000788568
0.000788578
0.000788588
0.000788598
0.000788608
0.000788618
0.000788629
0.000788639
0.000788649
0.000788659
0.000788669
0.000788679
0.000788689
0.000788699
0.000788709
0.000788719
0.000788729
0.00078874
0.00078875
0.00078876
0.00078877
0.00078878
0.00078879
0.0007888
0.00078881
0.00078882
0.00078883
0.00078884
0.00078885
0.00078886
0.00078887
0.00078888
0.00078889
0.0007889
0.00078891
0.00078892
0.00078893
0.00078894
0.00078895
0.00078896
0.00078897
0.00078898
0.00078899
0.000789
0.00078901
0.00078902
0.00078903
0.00078904
0.00078905
0.00078906
0.00078907
0.00078908
0.00078909
0.0007891
0.00078911
0.00078912
0.00078913
0.000789139
0.000789149
0.000789159
0.000789169
0.000789179
0.000789189
0.000789199
0.000789209
0.000789219
0.000789228
0.000789238
0.000789248
0.000789258
0.000789268
0.000789278
0.000789288
0.000789297
0.000789307
0.000789317
0.000789327
0.000789337
0.000789346
0.000789356
0.000789366
0.000789376
0.000789386
0.000789395
0.000789405
0.000789415
0.000789425
0.000789434
0.000789444
0.000789454
0.000789464
0.000789473
0.000789483
0.000789493
0.000789503
0.000789512
0.000789522
0.000789532
0.000789541
0.000789551
0.000789561
0.00078957
0.00078958
0.00078959
0.000789599
0.000789609
0.000789619
0.000789628
0.000789638
0.000789648
0.000789657
0.000789667
0.000789676
0.000789686
0.000789696
0.000789705
0.000789715
0.000789724
0.000789734
0.000789743
0.000789753
0.000789762
0.000789772
0.000789782
0.000789791
0.000789801
0.00078981
0.00078982
0.000789829
0.000789839
0.000789848
0.000789857
0.000789867
0.000789876
0.000789886
0.000789895
0.000789905
0.000789914
0.000789924
0.000789933
0.000789942
0.000789952
0.000789961
0.000789971
0.00078998
0.000789989
0.000789999
0.000790008
0.000790017
0.000790027
0.000790036
0.000790045
0.000790055
0.000790064
0.000790073
0.000790083
0.000790092
0.000790101
0.00079011
0.00079012
0.000790129
0.000790138
0.000790147
0.000790157
0.000790166
0.000790175
0.000790184
0.000790193
0.000790203
0.000790212
0.000790221
0.00079023
0.000790239
0.000790249
0.000790258
0.000790267
0.000790276
0.000790285
0.000790294
0.000790303
0.000790312
0.000790321
0.00079033
0.00079034
0.000790349
0.000790358
0.000790367
0.000790376
0.000790385
0.000790394
0.000790403
0.000790412
0.000790421
0.00079043
0.000790439
0.000790448
0.000790457
0.000790466
0.000790474
0.000790483
0.000790492
0.000790501
0.00079051
0.000790519
0.000790528
0.000790537
0.000790546
0.000790554
0.000790563
0.000790572
0.000790581
0.00079059
0.000790599
0.000790607
0.000790616
0.000790625
0.000790634
0.000790642
0.000790651
0.00079066
0.000790669
0.000790677
0.000790686
0.000790695
0.000790704
0.000790712
0.000790721
0.00079073
0.000790738
0.000790747
0.000790755
0.000790764
0.000790773
0.000790781
0.00079079
0.000790798
0.000790807
0.000790816
0.000790824
0.000790833
0.000790841
0.00079085
0.000790858
0.000790867
0.000790875
0.000790884
0.000790892
0.000790901
0.000790909
0.000790918
0.000790926
0.000790935
0.000790943
0.000790951
0.00079096
0.000790968
0.000790977
0.000790985
0.000790993
0.000791002
0.00079101
0.000791018
0.000791027
0.000791035
0.000791043
0.000791051
0.00079106
0.000791068
0.000791076
0.000791084
0.000791093
0.000791101
0.000791109
0.000791117
0.000791126
0.000791134
0.000791142
0.00079115
0.000791158
0.000791166
0.000791174
0.000791183
0.000791191
0.000791199
0.000791207
0.000791215
0.000791223
0.000791231
0.000791239
0.000791247
0.000791255
0.000791263
0.000791271
0.000791279
0.000791287
0.000791295
0.000791303
0.000791311
0.000791319
0.000791327
0.000791335
0.000791342
0.00079135
0.000791358
0.000791366
0.000791374
0.000791382
0.00079139
0.000791397
0.000791405
0.000791413
0.000791421
0.000791429
0.000791436
0.000791444
0.000791452
0.000791459
0.000791467
0.000791475
0.000791483
0.00079149
0.000791498
0.000791506
0.000791513
0.000791521
0.000791528
0.000791536
0.000791544
0.000791551
0.000791559
0.000791566
0.000791574
0.000791581
0.000791589
0.000791596
0.000791604
0.000791611
0.000791619
0.000791626
0.000791634
0.000791641
0.000791649
0.000791656
0.000791663
0.000791671
0.000791678
0.000791686
0.000791693
0.0007917
0.000791708
0.000791715
0.000791722
0.00079173
0.000791737
0.000791744
0.000791751
0.000791759
0.000791766
0.000791773
0.00079178
0.000791787
0.000791795
0.000791802
0.000791809
0.000791816
0.000791823
0.00079183
0.000791837
0.000791845
0.000791852
0.000791859
0.000791866
0.000791873
0.00079188
0.000791887
0.000791894
0.000791901
0.000791908
0.000791915
0.000791922
0.000791929
0.000791936
0.000791943
0.000791949
0.000791956
0.000791963
0.00079197
0.000791977
0.000791984
0.000791991
0.000791997
0.000792004
0.000792011
0.000792018
0.000792025
0.000792031
0.000792038
0.000792045
0.000792052
0.000792058
0.000792065
0.000792072
0.000792078
0.000792085
0.000792092
0.000792098
0.000792105
0.000792111
0.000792118
0.000792125
0.000792131
0.000792138
0.000792144
0.000792151
0.000792157
0.000792164
0.00079217
0.000792177
0.000792183
0.000792189
0.000792196
0.000792202
0.000792209
0.000792215
0.000792221
0.000792228
0.000792234
0.00079224
0.000792247
0.000792253
0.000792259
0.000792266
0.000792272
0.000792278
0.000792284
0.000792291
0.000792297
0.000792303
0.000792309
0.000792315
0.000792322
0.000792328
0.000792334
0.00079234
0.000792346
0.000792352
0.000792358
0.000792364
0.00079237
0.000792376
0.000792382
0.000792388
0.000792394
0.0007924
0.000792406
0.000792412
0.000792418
0.000792424
0.00079243
0.000792436
0.000792442
0.000792448
0.000792453
0.000792459
0.000792465
0.000792471
0.000792477
0.000792483
0.000792488
0.000792494
0.0007925
0.000792506
0.000792511
0.000792517
0.000792523
0.000792528
0.000792534
0.00079254
0.000792545
0.000792551
0.000792556
0.000792562
0.000792568
0.000792573
0.000792579
0.000792584
0.00079259
0.000792595
0.000792601
0.000792606
0.000792612
0.000792617
0.000792622
0.000792628
0.000792633
0.000792639
0.000792644
0.000792649
0.000792655
0.00079266
0.000792665
0.000792671
0.000792676
0.000792681
0.000792686
0.000792692
0.000792697
0.000792702
0.000792707
0.000792713
0.000792718
0.000792723
0.000792728
0.000792733
0.000792738
0.000792743
0.000792748
0.000792753
0.000792759
0.000792764
0.000792769
0.000792774
0.000792779
0.000792784
0.000792789
0.000792793
0.000792798
0.000792803
0.000792808
0.000792813
0.000792818
0.000792823
0.000792828
0.000792833
0.000792837
0.000792842
0.000792847
0.000792852
0.000792856
0.000792861
0.000792866
0.000792871
0.000792875
0.00079288
0.000792885
0.000792889
0.000792894
0.000792899
0.000792903
0.000792908
0.000792912
0.000792917
0.000792921
0.000792926
0.000792931
0.000792935
0.00079294
0.000792944
0.000792948
0.000792953
0.000792957
0.000792962
0.000792966
0.000792971
0.000792975
0.000792979
0.000792984
0.000792988
0.000792992
0.000792997
0.000793001
0.000793005
0.000793009
0.000793014
0.000793018
0.000793022
0.000793026
0.00079303
0.000793034
0.000793039
0.000793043
0.000793047
0.000793051
0.000793055
0.000793059
0.000793063
0.000793067
0.000793071
0.000793075
0.000793079
0.000793083
0.000793087
0.000793091
0.000793095
0.000793099
0.000793103
0.000793107
0.00079311
0.000793114
0.000793118
0.000793122
0.000793126
0.00079313
0.000793133
0.000793137
0.000793141
0.000793145
0.000793148
0.000793152
0.000793156
0.000793159
0.000793163
0.000793167
0.00079317
0.000793174
0.000793177
0.000793181
0.000793184
0.000793188
0.000793192
0.000793195
0.000793199
0.000793202
0.000793205
0.000793209
0.000793212
0.000793216
0.000793219
0.000793223
0.000793226
0.000793229
0.000793233
0.000793236
0.000793239
0.000793242
0.000793246
0.000793249
0.000793252
0.000793255
0.000793259
0.000793262
0.000793265
0.000793268
0.000793271
0.000793274
0.000793278
0.000793281
0.000793284
0.000793287
0.00079329
0.000793293
0.000793296
0.000793299
0.000793302
0.000793305
0.000793308
0.000793311
0.000793314
0.000793317
0.00079332
0.000793322
0.000793325
0.000793328
0.000793331
0.000793334
0.000793337
0.000793339
0.000793342
0.000793345
0.000793348
0.00079335
0.000793353
0.000793356
0.000793358
0.000793361
0.000793364
0.000793366
0.000793369
0.000793371
0.000793374
0.000793377
0.000793379
0.000793382
0.000793384
0.000793387
0.000793389
0.000793392
0.000793394
0.000793396
0.000793399
0.000793401
0.000793404
0.000793406
0.000793408
0.000793411
0.000793413
0.000793415
0.000793418
0.00079342
0.000793422
0.000793424
0.000793427
0.000793429
0.000793431
0.000793433
0.000793435
0.000793437
0.00079344
0.000793442
0.000793444
0.000793446
0.000793448
0.00079345
0.000793452
0.000793454
0.000793456
0.000793458
0.00079346
0.000793462
0.000793464
0.000793466
0.000793468
0.000793469
0.000793471
0.000793473
0.000793475
0.000793477
0.000793479
0.00079348
0.000793482
0.000793484
0.000793486
0.000793487
0.000793489
0.000793491
0.000793493
0.000793494
0.000793496
0.000793497
0.000793499
0.000793501
0.000793502
0.000793504
0.000793505
0.000793507
0.000793508
0.00079351
0.000793511
0.000793513
0.000793514
0.000793516
0.000793517
0.000793518
0.00079352
0.000793521
0.000793523
0.000793524
0.000793525
0.000793526
0.000793528
0.000793529
0.00079353
0.000793532
0.000793533
0.000793534
0.000793535
0.000793536
0.000793537
0.000793539
0.00079354
0.000793541
0.000793542
0.000793543
0.000793544
0.000793545
0.000793546
0.000793547
0.000793548
0.000793549
0.00079355
0.000793551
0.000793552
0.000793553
0.000793554
0.000793555
0.000793555
0.000793556
0.000793557
0.000793558
0.000793559
0.000793559
0.00079356
0.000793561
0.000793562
0.000793562
0.000793563
0.000793564
0.000793564
0.000793565
0.000793566
0.000793566
0.000793567
0.000793567
0.000793568
0.000793569
0.000793569
0.00079357
0.00079357
0.000793571
0.000793571
0.000793571
0.000793572
0.000793572
0.000793573
0.000793573
0.000793573
0.000793574
0.000793574
0.000793574
0.000793575
0.000793575
0.000793575
0.000793576
0.000793576
0.000793576
0.000793576
0.000793576
0.000793577
0.000793577
0.000793577
0.000793577
0.000793577
0.000793577
0.000793577
0.000793577
0.000793577
0.000793577
0.000793577
)
;

boundaryField
{
    fixedWall
    {
        type            calculated;
        value           uniform 0;
    }
    outlet
    {
        type            calculated;
        value           uniform 0.000793577;
    }
    defaultFaces
    {
        type            empty;
    }
}


// ************************************************************************* //
