/*--------------------------------*- C++ -*----------------------------------*\
| =========                 |                                                 |
| \\      /  F ield         | OpenFOAM: The Open Source CFD Toolbox           |
|  \\    /   O peration     | Version:  2406                                  |
|   \\  /    A nd           | Website:  www.openfoam.com                      |
|    \\/     M anipulation  |                                                 |
\*---------------------------------------------------------------------------*/
FoamFile
{
    version     2.0;
    format      ascii;
    arch        "LSB;label=32;scalar=64";
    class       surfaceScalarField;
    location    "6.8";
    object      phi;
}
// * * * * * * * * * * * * * * * * * * * * * * * * * * * * * * * * * * * * * //

dimensions      [1 0 -1 0 0 0 0];

oriented        oriented;

internalField   nonuniform List<scalar> 
999
(
-3.31411e-08
-1.06479e-07
-2.02492e-07
-3.11642e-07
-4.28367e-07
-5.49269e-07
-6.72204e-07
-7.95769e-07
-9.1905e-07
-1.04142e-06
-1.16246e-06
-1.28188e-06
-1.3995e-06
-1.5152e-06
-1.62889e-06
-1.74053e-06
-1.8501e-06
-1.9576e-06
-2.06303e-06
-2.1664e-06
-2.26773e-06
-2.36706e-06
-2.46441e-06
-2.5598e-06
-2.65328e-06
-2.74486e-06
-2.83458e-06
-2.92247e-06
-3.00857e-06
-3.09289e-06
-3.17548e-06
-3.25636e-06
-3.33555e-06
-3.41309e-06
-3.489e-06
-3.56332e-06
-3.63605e-06
-3.70723e-06
-3.77689e-06
-3.84504e-06
-3.91171e-06
-3.97692e-06
-4.04069e-06
-4.10305e-06
-4.16402e-06
-4.22361e-06
-4.28185e-06
-4.33876e-06
-4.39436e-06
-4.44867e-06
-4.5017e-06
-4.55347e-06
-4.60401e-06
-4.65333e-06
-4.70146e-06
-4.7484e-06
-4.79418e-06
-4.83882e-06
-4.88233e-06
-4.92473e-06
-4.96604e-06
-5.00628e-06
-5.04546e-06
-5.0836e-06
-5.12072e-06
-5.15683e-06
-5.19196e-06
-5.22612e-06
-5.25932e-06
-5.29159e-06
-5.32294e-06
-5.35339e-06
-5.38295e-06
-5.41164e-06
-5.43948e-06
-5.46648e-06
-5.49267e-06
-5.51805e-06
-5.54265e-06
-5.56647e-06
-5.58954e-06
-5.61188e-06
-5.63349e-06
-5.6544e-06
-5.67462e-06
-5.69417e-06
-5.71305e-06
-5.7313e-06
-5.74891e-06
-5.76592e-06
-5.78233e-06
-5.79815e-06
-5.81341e-06
-5.82812e-06
-5.84229e-06
-5.85594e-06
-5.86908e-06
-5.88172e-06
-5.89389e-06
-5.90558e-06
-5.91682e-06
-5.92762e-06
-5.938e-06
-5.94796e-06
-5.95752e-06
-5.96668e-06
-5.97548e-06
-5.9839e-06
-5.99198e-06
-5.99971e-06
-6.00711e-06
-6.01419e-06
-6.02096e-06
-6.02743e-06
-6.03362e-06
-6.03952e-06
-6.04515e-06
-6.05058e-06
-6.05576e-06
-6.06065e-06
-6.06532e-06
-6.06975e-06
-6.07398e-06
-6.07802e-06
-6.08186e-06
-6.08552e-06
-6.089e-06
-6.09231e-06
-6.09545e-06
-6.09844e-06
-6.10127e-06
-6.10396e-06
-6.10651e-06
-6.10892e-06
-6.11121e-06
-6.11338e-06
-6.11544e-06
-6.11738e-06
-6.11922e-06
-6.12096e-06
-6.1226e-06
-6.12416e-06
-6.12563e-06
-6.12701e-06
-6.12832e-06
-6.12955e-06
-6.13071e-06
-6.13181e-06
-6.13284e-06
-6.13381e-06
-6.13473e-06
-6.13559e-06
-6.13639e-06
-6.13716e-06
-6.13787e-06
-6.13854e-06
-6.13917e-06
-6.13977e-06
-6.14032e-06
-6.14084e-06
-6.14133e-06
-6.14179e-06
-6.14222e-06
-6.14262e-06
-6.143e-06
-6.14335e-06
-6.14368e-06
-6.14399e-06
-6.14428e-06
-6.14455e-06
-6.1448e-06
-6.14503e-06
-6.14526e-06
-6.14546e-06
-6.14565e-06
-6.14583e-06
-6.146e-06
-6.14616e-06
-6.1463e-06
-6.14644e-06
-6.14657e-06
-6.14669e-06
-6.1468e-06
-6.1469e-06
-6.147e-06
-6.14709e-06
-6.14717e-06
-6.14725e-06
-6.14733e-06
-6.14739e-06
-6.14746e-06
-6.14752e-06
-6.14757e-06
-6.14763e-06
-6.14768e-06
-6.14772e-06
-6.14776e-06
-6.1478e-06
-6.14784e-06
-6.14788e-06
-6.14791e-06
-6.14794e-06
-6.14797e-06
-6.148e-06
-6.14802e-06
-6.14805e-06
-6.14807e-06
-6.14809e-06
-6.14811e-06
-6.14812e-06
-6.14814e-06
-6.14816e-06
-6.14817e-06
-6.14818e-06
-6.1482e-06
-6.14821e-06
-6.14822e-06
-6.14823e-06
-6.14824e-06
-6.14825e-06
-6.14826e-06
-6.14827e-06
-6.14828e-06
-6.14829e-06
-6.14829e-06
-6.1483e-06
-6.1483e-06
-6.14831e-06
-6.14831e-06
-6.14831e-06
-6.14832e-06
-6.14832e-06
-6.14832e-06
-6.14832e-06
-6.14833e-06
-6.14833e-06
-6.14833e-06
-6.14833e-06
-6.14833e-06
-6.14833e-06
-6.14832e-06
-6.14832e-06
-6.14832e-06
-6.14832e-06
-6.14832e-06
-6.14831e-06
-6.14831e-06
-6.14831e-06
-6.1483e-06
-6.1483e-06
-6.14829e-06
-6.14829e-06
-6.14829e-06
-6.14828e-06
-6.14827e-06
-6.14827e-06
-6.14826e-06
-6.14826e-06
-6.14825e-06
-6.14824e-06
-6.14824e-06
-6.14823e-06
-6.14822e-06
-6.14821e-06
-6.14821e-06
-6.1482e-06
-6.14819e-06
-6.14818e-06
-6.14817e-06
-6.14816e-06
-6.14815e-06
-6.14814e-06
-6.14813e-06
-6.14812e-06
-6.14811e-06
-6.14811e-06
-6.14809e-06
-6.14808e-06
-6.14807e-06
-6.14806e-06
-6.14805e-06
-6.14804e-06
-6.14803e-06
-6.14802e-06
-6.14801e-06
-6.14799e-06
-6.14798e-06
-6.14797e-06
-6.14796e-06
-6.14795e-06
-6.14793e-06
-6.14792e-06
-6.14791e-06
-6.1479e-06
-6.14789e-06
-6.14787e-06
-6.14786e-06
-6.14785e-06
-6.14784e-06
-6.14783e-06
-6.14781e-06
-6.1478e-06
-6.14779e-06
-6.14778e-06
-6.14776e-06
-6.14775e-06
-6.14774e-06
-6.14773e-06
-6.14771e-06
-6.1477e-06
-6.14769e-06
-6.14768e-06
-6.14767e-06
-6.14765e-06
-6.14764e-06
-6.14763e-06
-6.14762e-06
-6.14761e-06
-6.14759e-06
-6.14758e-06
-6.14757e-06
-6.14756e-06
-6.14755e-06
-6.14754e-06
-6.14753e-06
-6.14752e-06
-6.14751e-06
-6.1475e-06
-6.14749e-06
-6.14748e-06
-6.14747e-06
-6.14746e-06
-6.14745e-06
-6.14744e-06
-6.14743e-06
-6.14742e-06
-6.14742e-06
-6.14741e-06
-6.1474e-06
-6.14739e-06
-6.14738e-06
-6.14738e-06
-6.14737e-06
-6.14736e-06
-6.14736e-06
-6.14735e-06
-6.14735e-06
-6.14734e-06
-6.14734e-06
-6.14733e-06
-6.14733e-06
-6.14732e-06
-6.14732e-06
-6.14731e-06
-6.14731e-06
-6.14731e-06
-6.14731e-06
-6.1473e-06
-6.1473e-06
-6.1473e-06
-6.1473e-06
-6.1473e-06
-6.1473e-06
-6.1473e-06
-6.1473e-06
-6.1473e-06
-6.1473e-06
-6.1473e-06
-6.1473e-06
-6.14731e-06
-6.14731e-06
-6.14731e-06
-6.14731e-06
-6.14731e-06
-6.14732e-06
-6.14732e-06
-6.14733e-06
-6.14733e-06
-6.14733e-06
-6.14734e-06
-6.14734e-06
-6.14735e-06
-6.14736e-06
-6.14736e-06
-6.14737e-06
-6.14737e-06
-6.14738e-06
-6.14738e-06
-6.14739e-06
-6.14739e-06
-6.1474e-06
-6.14741e-06
-6.14741e-06
-6.14742e-06
-6.14742e-06
-6.14743e-06
-6.14744e-06
-6.14744e-06
-6.14745e-06
-6.14745e-06
-6.14746e-06
-6.14746e-06
-6.14747e-06
-6.14747e-06
-6.14747e-06
-6.14748e-06
-6.14748e-06
-6.14748e-06
-6.14749e-06
-6.14749e-06
-6.14749e-06
-6.1475e-06
-6.1475e-06
-6.1475e-06
-6.1475e-06
-6.1475e-06
-6.1475e-06
-6.1475e-06
-6.1475e-06
-6.1475e-06
-6.1475e-06
-6.1475e-06
-6.1475e-06
-6.1475e-06
-6.1475e-06
-6.1475e-06
-6.14749e-06
-6.14749e-06
-6.14749e-06
-6.14748e-06
-6.14748e-06
-6.14748e-06
-6.14747e-06
-6.14747e-06
-6.14747e-06
-6.14746e-06
-6.14746e-06
-6.14745e-06
-6.14745e-06
-6.14744e-06
-6.14743e-06
-6.14743e-06
-6.14742e-06
-6.14742e-06
-6.14741e-06
-6.14741e-06
-6.1474e-06
-6.1474e-06
-6.14739e-06
-6.14738e-06
-6.14738e-06
-6.14737e-06
-6.14737e-06
-6.14736e-06
-6.14735e-06
-6.14735e-06
-6.14734e-06
-6.14734e-06
-6.14733e-06
-6.14733e-06
-6.14732e-06
-6.14732e-06
-6.14731e-06
-6.14731e-06
-6.1473e-06
-6.1473e-06
-6.14729e-06
-6.14729e-06
-6.14729e-06
-6.14728e-06
-6.14728e-06
-6.14728e-06
-6.14727e-06
-6.14727e-06
-6.14727e-06
-6.14727e-06
-6.14726e-06
-6.14726e-06
-6.14726e-06
-6.14726e-06
-6.14726e-06
-6.14726e-06
-6.14725e-06
-6.14725e-06
-6.14725e-06
-6.14725e-06
-6.14725e-06
-6.14725e-06
-6.14725e-06
-6.14725e-06
-6.14724e-06
-6.14724e-06
-6.14724e-06
-6.14724e-06
-6.14724e-06
-6.14724e-06
-6.14724e-06
-6.14724e-06
-6.14724e-06
-6.14724e-06
-6.14724e-06
-6.14724e-06
-6.14724e-06
-6.14724e-06
-6.14724e-06
-6.14724e-06
-6.14724e-06
-6.14724e-06
-6.14724e-06
-6.14724e-06
-6.14724e-06
-6.14725e-06
-6.14725e-06
-6.14725e-06
-6.14725e-06
-6.14725e-06
-6.14725e-06
-6.14725e-06
-6.14725e-06
-6.14725e-06
-6.14725e-06
-6.14726e-06
-6.14726e-06
-6.14726e-06
-6.14726e-06
-6.14726e-06
-6.14726e-06
-6.14726e-06
-6.14726e-06
-6.14726e-06
-6.14726e-06
-6.14726e-06
-6.14726e-06
-6.14726e-06
-6.14726e-06
-6.14726e-06
-6.14726e-06
-6.14726e-06
-6.14726e-06
-6.14726e-06
-6.14726e-06
-6.14726e-06
-6.14726e-06
-6.14726e-06
-6.14725e-06
-6.14725e-06
-6.14725e-06
-6.14725e-06
-6.14725e-06
-6.14724e-06
-6.14724e-06
-6.14724e-06
-6.14723e-06
-6.14723e-06
-6.14723e-06
-6.14722e-06
-6.14722e-06
-6.14721e-06
-6.14721e-06
-6.1472e-06
-6.14719e-06
-6.14719e-06
-6.14718e-06
-6.14717e-06
-6.14716e-06
-6.14715e-06
-6.14714e-06
-6.14714e-06
-6.14713e-06
-6.14712e-06
-6.14711e-06
-6.1471e-06
-6.14709e-06
-6.14708e-06
-6.14707e-06
-6.14706e-06
-6.14705e-06
-6.14704e-06
-6.14703e-06
-6.14702e-06
-6.14701e-06
-6.147e-06
-6.14699e-06
-6.14698e-06
-6.14697e-06
-6.14696e-06
-6.14695e-06
-6.14694e-06
-6.14693e-06
-6.14692e-06
-6.14691e-06
-6.14691e-06
-6.1469e-06
-6.14689e-06
-6.14689e-06
-6.14688e-06
-6.14687e-06
-6.14687e-06
-6.14686e-06
-6.14686e-06
-6.14685e-06
-6.14685e-06
-6.14685e-06
-6.14684e-06
-6.14684e-06
-6.14684e-06
-6.14684e-06
-6.14684e-06
-6.14684e-06
-6.14684e-06
-6.14684e-06
-6.14684e-06
-6.14684e-06
-6.14685e-06
-6.14685e-06
-6.14685e-06
-6.14685e-06
-6.14685e-06
-6.14686e-06
-6.14686e-06
-6.14686e-06
-6.14686e-06
-6.14687e-06
-6.14687e-06
-6.14687e-06
-6.14688e-06
-6.14688e-06
-6.14688e-06
-6.14688e-06
-6.14689e-06
-6.14689e-06
-6.14689e-06
-6.14689e-06
-6.1469e-06
-6.1469e-06
-6.1469e-06
-6.1469e-06
-6.1469e-06
-6.1469e-06
-6.1469e-06
-6.1469e-06
-6.1469e-06
-6.1469e-06
-6.1469e-06
-6.1469e-06
-6.1469e-06
-6.1469e-06
-6.1469e-06
-6.1469e-06
-6.1469e-06
-6.1469e-06
-6.1469e-06
-6.1469e-06
-6.1469e-06
-6.1469e-06
-6.1469e-06
-6.1469e-06
-6.1469e-06
-6.1469e-06
-6.1469e-06
-6.1469e-06
-6.1469e-06
-6.1469e-06
-6.1469e-06
-6.1469e-06
-6.14691e-06
-6.14691e-06
-6.14691e-06
-6.14691e-06
-6.14691e-06
-6.14691e-06
-6.14691e-06
-6.14692e-06
-6.14692e-06
-6.14692e-06
-6.14692e-06
-6.14692e-06
-6.14693e-06
-6.14693e-06
-6.14692e-06
-6.14692e-06
-6.14692e-06
-6.14692e-06
-6.14692e-06
-6.14692e-06
-6.14692e-06
-6.14692e-06
-6.14691e-06
-6.14691e-06
-6.1469e-06
-6.1469e-06
-6.14689e-06
-6.14688e-06
-6.14687e-06
-6.14686e-06
-6.14685e-06
-6.14684e-06
-6.14683e-06
-6.14682e-06
-6.1468e-06
-6.14679e-06
-6.14677e-06
-6.14675e-06
-6.14673e-06
-6.14671e-06
-6.14669e-06
-6.14667e-06
-6.14665e-06
-6.14662e-06
-6.1466e-06
-6.14657e-06
-6.14655e-06
-6.14652e-06
-6.14649e-06
-6.14646e-06
-6.14643e-06
-6.14641e-06
-6.14638e-06
-6.14635e-06
-6.14632e-06
-6.14629e-06
-6.14626e-06
-6.14623e-06
-6.1462e-06
-6.14617e-06
-6.14614e-06
-6.14612e-06
-6.14609e-06
-6.14606e-06
-6.14604e-06
-6.14601e-06
-6.14599e-06
-6.14597e-06
-6.14595e-06
-6.14593e-06
-6.14591e-06
-6.1459e-06
-6.14588e-06
-6.14587e-06
-6.14586e-06
-6.14585e-06
-6.14584e-06
-6.14584e-06
-6.14584e-06
-6.14583e-06
-6.14583e-06
-6.14583e-06
-6.14584e-06
-6.14584e-06
-6.14585e-06
-6.14586e-06
-6.14587e-06
-6.14588e-06
-6.14589e-06
-6.14591e-06
-6.14593e-06
-6.14595e-06
-6.14596e-06
-6.14598e-06
-6.14601e-06
-6.14603e-06
-6.14605e-06
-6.14608e-06
-6.1461e-06
-6.14613e-06
-6.14616e-06
-6.14618e-06
-6.14621e-06
-6.14624e-06
-6.14627e-06
-6.14629e-06
-6.14632e-06
-6.14635e-06
-6.14638e-06
-6.1464e-06
-6.14643e-06
-6.14645e-06
-6.14648e-06
-6.1465e-06
-6.14652e-06
-6.14655e-06
-6.14657e-06
-6.14659e-06
-6.1466e-06
-6.14662e-06
-6.14663e-06
-6.14665e-06
-6.14666e-06
-6.14667e-06
-6.14667e-06
-6.14668e-06
-6.14668e-06
-6.14668e-06
-6.14668e-06
-6.14668e-06
-6.14668e-06
-6.14667e-06
-6.14666e-06
-6.14665e-06
-6.14664e-06
-6.14662e-06
-6.1466e-06
-6.14658e-06
-6.14656e-06
-6.14654e-06
-6.14651e-06
-6.14649e-06
-6.14646e-06
-6.14643e-06
-6.14639e-06
-6.14636e-06
-6.14632e-06
-6.14629e-06
-6.14625e-06
-6.14621e-06
-6.14617e-06
-6.14613e-06
-6.14609e-06
-6.14605e-06
-6.146e-06
-6.14596e-06
-6.14592e-06
-6.14587e-06
-6.14583e-06
-6.14579e-06
-6.14575e-06
-6.14571e-06
-6.14567e-06
-6.14563e-06
-6.14559e-06
-6.14555e-06
-6.14552e-06
-6.14548e-06
-6.14545e-06
-6.14542e-06
-6.14539e-06
-6.14536e-06
-6.14534e-06
-6.14531e-06
-6.14529e-06
-6.14527e-06
-6.14525e-06
-6.14524e-06
-6.14522e-06
-6.14521e-06
-6.1452e-06
-6.1452e-06
-6.14519e-06
-6.14519e-06
-6.14519e-06
-6.14519e-06
-6.14519e-06
-6.14519e-06
-6.1452e-06
-6.1452e-06
-6.14521e-06
-6.14521e-06
-6.14522e-06
-6.14523e-06
-6.14524e-06
-6.14525e-06
-6.14525e-06
-6.14526e-06
-6.14527e-06
-6.14528e-06
-6.14529e-06
-6.14529e-06
-6.1453e-06
-6.1453e-06
-6.14531e-06
-6.14531e-06
-6.14531e-06
-6.14531e-06
-6.14531e-06
-6.14531e-06
-6.1453e-06
-6.1453e-06
-6.14529e-06
-6.14529e-06
-6.14528e-06
-6.14527e-06
-6.14526e-06
-6.14525e-06
-6.14523e-06
-6.14522e-06
-6.1452e-06
-6.14519e-06
-6.14517e-06
-6.14515e-06
-6.14514e-06
-6.14512e-06
-6.1451e-06
-6.14508e-06
-6.14505e-06
-6.14503e-06
-6.14501e-06
-6.14498e-06
-6.14496e-06
-6.14493e-06
-6.1449e-06
-6.14487e-06
-6.14484e-06
-6.14481e-06
-6.14478e-06
-6.14475e-06
-6.14471e-06
-6.14468e-06
-6.14465e-06
-6.14462e-06
-6.14459e-06
-6.14456e-06
-6.14453e-06
-6.14451e-06
-6.14449e-06
-6.14448e-06
-6.14447e-06
-6.14448e-06
-6.1445e-06
-6.14453e-06
-6.14458e-06
-6.14466e-06
-6.14476e-06
-6.1449e-06
-6.14507e-06
-6.1453e-06
-6.14559e-06
-6.14596e-06
-6.14641e-06
-6.14698e-06
-6.14768e-06
-6.14853e-06
-6.14959e-06
-6.15087e-06
-6.15244e-06
-6.15434e-06
-6.15665e-06
-6.15943e-06
-6.16279e-06
-6.16683e-06
-6.17168e-06
-6.17749e-06
-6.18442e-06
-6.19269e-06
-6.20252e-06
-6.21417e-06
-6.22795e-06
-6.24421e-06
-6.26334e-06
-6.28579e-06
-6.31207e-06
-6.34275e-06
-6.37845e-06
-6.4199e-06
-6.46787e-06
-6.52324e-06
-6.58697e-06
-6.6601e-06
-6.74377e-06
-6.83922e-06
-6.94779e-06
-7.07091e-06
-7.21014e-06
-7.3671e-06
-7.54353e-06
-7.74127e-06
-7.96225e-06
-8.20849e-06
-8.48209e-06
-8.78525e-06
-9.12024e-06
-9.48939e-06
-9.89513e-06
-1.03399e-05
-1.08264e-05
-1.1357e-05
-1.19346e-05
-1.25618e-05
-1.32415e-05
-1.39767e-05
-1.47703e-05
-1.56256e-05
-1.65458e-05
-1.75344e-05
-1.85951e-05
-1.97315e-05
-2.09476e-05
-2.22468e-05
-2.36286e-05
-2.50723e-05
-2.67033e-05
-2.84369e-05
-3.02876e-05
-3.22685e-05
-3.43906e-05
-3.66596e-05
-3.90691e-05
-4.15827e-05
-4.40939e-05
-4.63228e-05
)
;

boundaryField
{
    fixedWall
    {
        type            calculated;
        value           uniform 0;
    }
    outlet
    {
        type            calculated;
        value           uniform -4.75214e-05;
    }
    defaultFaces
    {
        type            empty;
    }
}


// ************************************************************************* //
