/*--------------------------------*- C++ -*----------------------------------*\
| =========                 |                                                 |
| \\      /  F ield         | OpenFOAM: The Open Source CFD Toolbox           |
|  \\    /   O peration     | Version:  2406                                  |
|   \\  /    A nd           | Website:  www.openfoam.com                      |
|    \\/     M anipulation  |                                                 |
\*---------------------------------------------------------------------------*/
FoamFile
{
    version     2.0;
    format      ascii;
    arch        "LSB;label=32;scalar=64";
    class       volScalarField;
    location    "6.8";
    object      Qdot;
}
// * * * * * * * * * * * * * * * * * * * * * * * * * * * * * * * * * * * * * //

dimensions      [1 -1 -3 0 0 0 0];

internalField   nonuniform List<scalar> 
1000
(
-2.51532e-18
-1.12686e-16
-2.1314e-15
1.14133e-08
7.21283e-08
3.50257e-07
1.36235e-06
4.3483e-06
1.19464e-05
2.89975e-05
6.35105e-05
0.000127639
0.000238461
0.000418481
0.00069579
0.00110363
0.00167965
0.00246467
0.00350113
0.0048313
0.00649551
0.00853022
0.0109664
0.0138281
0.0171314
0.0208833
0.0250816
0.0297149
0.0347626
0.040196
0.0459786
0.0520676
0.058415
0.0649691
0.0716756
0.0784791
0.0853244
0.0921574
0.0989265
0.105583
0.112084
0.118388
0.12446
0.130271
0.135795
0.141014
0.145913
0.150482
0.154717
0.158615
0.162179
0.165416
0.168334
0.170944
0.173259
0.175294
0.177064
0.178586
0.179877
0.180955
0.181837
0.18254
0.183081
0.183476
0.183741
0.183891
0.183941
0.183902
0.183789
0.183611
0.183381
0.183108
0.1828
0.182467
0.182115
0.18175
0.18138
0.181008
0.180641
0.18028
0.179931
0.179596
0.179278
0.178978
0.178699
0.178442
0.178208
0.177998
0.177812
0.17765
0.177514
0.177403
0.177316
0.177254
0.177216
0.177202
0.177211
0.177242
0.177295
0.177369
0.177463
0.177577
0.17771
0.17786
0.178028
0.178213
0.178413
0.178628
0.178857
0.179099
0.179354
0.179621
0.179899
0.180188
0.180487
0.180795
0.181113
0.181438
0.181772
0.182111
0.182459
0.182812
0.18317
0.183536
0.183907
0.184282
0.184663
0.185047
0.185436
0.185828
0.186223
0.186622
0.187024
0.187428
0.187836
0.188245
0.188657
0.189072
0.189488
0.189906
0.190326
0.190748
0.191172
0.191597
0.192023
0.192452
0.192881
0.193312
0.193744
0.194178
0.194612
0.195049
0.195486
0.195924
0.196364
0.196805
0.197247
0.19769
0.198134
0.19858
0.199026
0.199474
0.199923
0.200373
0.200825
0.201277
0.201731
0.202186
0.202643
0.2031
0.203559
0.204019
0.20448
0.204943
0.205407
0.205873
0.206339
0.206807
0.207277
0.207748
0.20822
0.208694
0.209169
0.209645
0.210123
0.210603
0.211084
0.211566
0.21205
0.212532
0.213019
0.213508
0.213998
0.21449
0.214984
0.215479
0.215976
0.216474
0.216974
0.217476
0.217979
0.218484
0.21899
0.219498
0.220008
0.22052
0.221033
0.221548
0.222064
0.222583
0.223103
0.223624
0.224148
0.224673
0.2252
0.225729
0.226259
0.226792
0.227326
0.227862
0.2284
0.228939
0.229481
0.230024
0.230569
0.231116
0.231664
0.232215
0.232767
0.233322
0.233878
0.234436
0.234996
0.235558
0.236122
0.236688
0.237255
0.237825
0.238397
0.23897
0.239546
0.240123
0.240703
0.241284
0.241867
0.242453
0.24304
0.24363
0.244221
0.244815
0.24541
0.246008
0.246608
0.24721
0.247813
0.248419
0.249028
0.249638
0.25025
0.250865
0.251481
0.2521
0.252721
0.253344
0.253969
0.254597
0.255227
0.255859
0.256493
0.257129
0.257768
0.258409
0.259052
0.259698
0.260346
0.260996
0.261649
0.262304
0.262961
0.263621
0.264283
0.264947
0.265614
0.266283
0.266955
0.267629
0.268306
0.268985
0.269666
0.270351
0.271037
0.271726
0.272418
0.273112
0.273809
0.274509
0.275211
0.275915
0.27662
0.277325
0.278038
0.278753
0.279471
0.280192
0.280916
0.281642
0.282371
0.283102
0.283837
0.284574
0.285314
0.286057
0.286802
0.287551
0.288302
0.289056
0.289813
0.290573
0.291336
0.292102
0.29287
0.293642
0.294417
0.295194
0.295975
0.296759
0.297545
0.298335
0.299128
0.299924
0.300723
0.301525
0.30233
0.303138
0.30395
0.304764
0.305582
0.306403
0.307228
0.308055
0.308886
0.30972
0.310558
0.311398
0.312243
0.31309
0.313941
0.314795
0.315653
0.316514
0.317379
0.318247
0.319119
0.319994
0.320872
0.321755
0.322641
0.32353
0.324423
0.32532
0.326221
0.327125
0.328033
0.328945
0.329861
0.33078
0.331704
0.332631
0.333562
0.334497
0.335436
0.336379
0.337327
0.338278
0.339233
0.340192
0.341155
0.342123
0.343095
0.344071
0.345051
0.346035
0.347024
0.348017
0.349014
0.350016
0.351022
0.352033
0.353048
0.354067
0.355091
0.35612
0.357153
0.35819
0.359233
0.360279
0.361331
0.362387
0.363448
0.364513
0.365584
0.366659
0.367737
0.368814
0.369904
0.370999
0.372099
0.373203
0.374313
0.375428
0.376547
0.377672
0.378802
0.379936
0.381076
0.382221
0.383371
0.384526
0.385687
0.386852
0.388023
0.389199
0.39038
0.391567
0.392759
0.393956
0.395159
0.396367
0.39758
0.398799
0.400024
0.401254
0.40249
0.403731
0.404978
0.40623
0.407488
0.408752
0.410022
0.411298
0.412579
0.413866
0.415159
0.416456
0.417752
0.419062
0.420379
0.421702
0.423031
0.424366
0.425708
0.427056
0.42841
0.429771
0.431138
0.432512
0.433892
0.435279
0.436672
0.438072
0.439479
0.440892
0.442313
0.44374
0.445174
0.446614
0.448062
0.449517
0.450979
0.452448
0.453924
0.455408
0.456899
0.458397
0.459902
0.461415
0.462936
0.464464
0.465999
0.467542
0.469093
0.470652
0.472218
0.473793
0.475375
0.476965
0.478564
0.48017
0.481784
0.483407
0.485038
0.486677
0.488324
0.48998
0.491645
0.493318
0.494999
0.496689
0.498388
0.500096
0.501812
0.503537
0.505271
0.507014
0.508767
0.510528
0.512298
0.514078
0.515867
0.517665
0.519473
0.521289
0.523101
0.524935
0.52678
0.528635
0.5305
0.532376
0.534261
0.536157
0.538062
0.539978
0.541904
0.543841
0.545787
0.547745
0.549713
0.551691
0.553681
0.555681
0.557692
0.559714
0.561747
0.563792
0.565847
0.567914
0.569993
0.572082
0.574184
0.576297
0.578422
0.580559
0.582708
0.584869
0.587042
0.589227
0.591424
0.593634
0.595857
0.598092
0.600339
0.6026
0.604873
0.607159
0.609458
0.611771
0.614096
0.616435
0.618787
0.621153
0.623532
0.625925
0.628331
0.630752
0.633186
0.635635
0.638097
0.640568
0.643041
0.645545
0.648064
0.650597
0.653145
0.655708
0.658286
0.660879
0.663487
0.66611
0.668749
0.671403
0.674073
0.676758
0.679459
0.682176
0.684909
0.687659
0.690424
0.693207
0.696006
0.698821
0.701654
0.704503
0.70737
0.710254
0.713156
0.716075
0.719012
0.721967
0.724941
0.727932
0.730942
0.733971
0.737019
0.740085
0.743171
0.746276
0.749401
0.752546
0.75571
0.758894
0.762099
0.765324
0.76857
0.771836
0.775124
0.778433
0.781763
0.785115
0.788488
0.791883
0.795301
0.798741
0.802203
0.805688
0.809196
0.812727
0.816282
0.81986
0.823448
0.827048
0.8307
0.834375
0.838075
0.841799
0.845547
0.849321
0.85312
0.856944
0.860794
0.864669
0.868571
0.872498
0.876453
0.880434
0.884442
0.888477
0.89254
0.89663
0.900748
0.904895
0.90907
0.913274
0.917506
0.921769
0.926061
0.930382
0.934734
0.939117
0.94353
0.947975
0.952451
0.956959
0.961499
0.966072
0.970677
0.975316
0.979988
0.984695
0.989435
0.99421
0.999021
1.00387
1.00875
1.01367
1.01862
1.02361
1.02864
1.0337
1.03881
1.04395
1.04913
1.05435
1.05961
1.06491
1.07025
1.07564
1.08106
1.08652
1.09203
1.09758
1.10317
1.1088
1.11448
1.1202
1.12597
1.13178
1.13763
1.14353
1.14948
1.15547
1.16151
1.1676
1.17374
1.17992
1.18615
1.19243
1.19876
1.20513
1.21151
1.21799
1.22451
1.23109
1.23772
1.2444
1.25114
1.25793
1.26478
1.27167
1.27863
1.28564
1.2927
1.29983
1.30701
1.31424
1.32154
1.3289
1.33631
1.34379
1.35133
1.35893
1.36659
1.37432
1.38211
1.38997
1.39789
1.40588
1.41394
1.42206
1.43026
1.43852
1.44686
1.45527
1.46375
1.47231
1.48094
1.48965
1.49844
1.5073
1.51624
1.52527
1.53437
1.54356
1.55283
1.56219
1.57163
1.58116
1.59077
1.60048
1.61028
1.62017
1.63015
1.64022
1.65039
1.66065
1.67093
1.68139
1.69194
1.7026
1.71337
1.72424
1.73522
1.74631
1.7575
1.7688
1.78021
1.79174
1.80338
1.81514
1.82701
1.839
1.85111
1.86334
1.8757
1.88817
1.90078
1.91351
1.92637
1.93937
1.95249
1.96575
1.97915
1.99268
2.00636
2.02017
2.03413
2.04823
2.06248
2.07688
2.09143
2.10613
2.12099
2.136
2.15117
2.1665
2.18199
2.19765
2.21348
2.22947
2.24564
2.26198
2.27849
2.29519
2.31206
2.32912
2.34636
2.36379
2.38142
2.39924
2.41725
2.43547
2.45389
2.47252
2.49123
2.51015
2.52942
2.5489
2.56861
2.58853
2.60868
2.62907
2.64969
2.67054
2.69164
2.71299
2.73459
2.75644
2.77856
2.80094
2.82358
2.8465
2.8697
2.89318
2.91695
2.94102
2.96537
2.99004
3.01501
3.04029
3.0659
3.09183
3.11808
3.14468
3.17162
3.1989
3.22655
3.25455
3.28292
3.31166
3.34079
3.3703
3.40021
3.43051
3.46111
3.49202
3.52358
3.55558
3.58801
3.62088
3.65421
3.68799
3.72225
3.75698
3.7922
3.82792
3.86413
3.90086
3.93812
3.9759
4.01423
4.05311
4.09256
4.13258
4.17318
4.21438
4.25619
4.29863
4.3417
4.38541
4.42979
4.47484
4.52057
4.56702
4.61417
4.66206
4.7107
4.7601
4.81029
4.86126
4.91305
4.96567
5.01914
5.07347
5.12869
5.18481
5.24184
5.29982
5.35876
5.41868
5.4796
5.54154
5.60452
5.66856
5.73369
5.79991
5.86729
5.93586
6.00525
6.07631
6.14857
6.22208
6.2969
6.37305
6.45061
6.5296
6.61003
6.69195
6.77539
6.86039
6.94699
7.03524
7.12517
7.21682
7.31025
7.40548
7.50258
7.60158
7.70254
7.80551
7.91053
8.01768
8.12702
8.23862
8.35257
8.46896
8.58791
8.70955
8.83404
8.96158
9.0924
9.22678
9.36507
9.50769
9.65512
9.80797
9.96696
10.1329
10.3069
10.4899
10.6835
10.889
11.1081
11.3428
11.5949
11.8665
12.1596
12.476
12.8173
13.1841
13.5763
13.9922
14.4279
14.8768
15.3287
15.7686
16.1761
16.5245
16.7802
16.9032
16.8485
16.5686
16.0186
15.1636
13.9868
12.5
10.751
8.82798
6.85406
4.97263
3.34155
2.04255
1.09239
0.499891
0.187287
0.0539469
0.0108881
0.00133499
7.89033e-05
1.50018e-06
3.99135e-09
-3.35376e-19
)
;

boundaryField
{
    fixedWall
    {
        type            calculated;
        value           uniform 0;
    }
    outlet
    {
        type            calculated;
        value           uniform 0;
    }
    defaultFaces
    {
        type            empty;
    }
}


// ************************************************************************* //
