/*--------------------------------*- C++ -*----------------------------------*\
| =========                 |                                                 |
| \\      /  F ield         | OpenFOAM: The Open Source CFD Toolbox           |
|  \\    /   O peration     | Version:  2406                                  |
|   \\  /    A nd           | Website:  www.openfoam.com                      |
|    \\/     M anipulation  |                                                 |
\*---------------------------------------------------------------------------*/
FoamFile
{
    version     2.0;
    format      ascii;
    arch        "LSB;label=32;scalar=64";
    class       volScalarField;
    location    "1.7";
    object      CO2;
}
// * * * * * * * * * * * * * * * * * * * * * * * * * * * * * * * * * * * * * //

dimensions      [0 0 0 0 0 0 0];

internalField   nonuniform List<scalar> 
1000
(
0.0709257
0.0709257
0.0709257
0.0709257
0.0709257
0.0709257
0.0709257
0.0709257
0.0709257
0.0709257
0.0709257
0.0709257
0.0709257
0.0709257
0.0709257
0.0709257
0.0709257
0.0709257
0.0709257
0.0709258
0.0709258
0.0709258
0.0709258
0.0709258
0.0709258
0.0709258
0.0709258
0.0709259
0.0709259
0.0709259
0.0709259
0.0709259
0.0709259
0.0709259
0.0709259
0.0709259
0.0709259
0.0709259
0.0709259
0.0709259
0.0709259
0.0709259
0.0709259
0.0709259
0.0709259
0.0709259
0.0709259
0.0709259
0.0709259
0.0709259
0.0709259
0.0709259
0.0709259
0.0709259
0.0709259
0.0709259
0.0709259
0.0709259
0.0709259
0.0709258
0.0709258
0.0709258
0.0709258
0.0709258
0.0709258
0.0709258
0.0709258
0.0709258
0.0709258
0.0709258
0.0709258
0.0709258
0.0709258
0.0709258
0.0709258
0.0709257
0.0709257
0.0709257
0.0709257
0.0709257
0.0709257
0.0709257
0.0709257
0.0709257
0.0709257
0.0709257
0.0709257
0.0709257
0.0709257
0.0709256
0.0709256
0.0709256
0.0709256
0.0709256
0.0709256
0.0709256
0.0709256
0.0709256
0.0709256
0.0709256
0.0709256
0.0709255
0.0709255
0.0709255
0.0709255
0.0709255
0.0709255
0.0709255
0.0709255
0.0709255
0.0709255
0.0709255
0.0709254
0.0709254
0.0709254
0.0709254
0.0709254
0.0709254
0.0709254
0.0709254
0.0709254
0.0709253
0.0709253
0.0709253
0.0709253
0.0709253
0.0709253
0.0709253
0.0709253
0.0709252
0.0709252
0.0709252
0.0709252
0.0709252
0.0709252
0.0709252
0.0709252
0.0709251
0.0709251
0.0709251
0.0709251
0.0709251
0.0709251
0.070925
0.070925
0.070925
0.070925
0.070925
0.070925
0.0709249
0.0709249
0.0709249
0.0709249
0.0709249
0.0709248
0.0709248
0.0709248
0.0709248
0.0709248
0.0709247
0.0709247
0.0709247
0.0709247
0.0709246
0.0709246
0.0709246
0.0709246
0.0709245
0.0709245
0.0709245
0.0709245
0.0709244
0.0709244
0.0709244
0.0709243
0.0709243
0.0709243
0.0709242
0.0709242
0.0709242
0.0709241
0.0709241
0.0709241
0.070924
0.070924
0.070924
0.0709239
0.0709239
0.0709238
0.0709238
0.0709237
0.0709237
0.0709236
0.0709236
0.0709235
0.0709235
0.0709234
0.0709234
0.0709233
0.0709232
0.0709232
0.0709231
0.070923
0.070923
0.0709229
0.0709228
0.0709227
0.0709226
0.0709225
0.0709224
0.0709224
0.0709222
0.0709221
0.070922
0.0709219
0.0709218
0.0709217
0.0709215
0.0709214
0.0709213
0.0709211
0.0709209
0.0709208
0.0709206
0.0709204
0.0709202
0.07092
0.0709197
0.0709195
0.0709192
0.0709189
0.0709186
0.0709183
0.0709179
0.0709175
0.0709171
0.0709167
0.0709161
0.0709156
0.070915
0.0709143
0.0709135
0.0709127
0.0709117
0.0709106
0.0709094
0.0709079
0.0709063
0.0709043
0.0709019
0.0708989
0.0708952
0.0708905
0.0708843
0.0708759
0.070864
0.0708459
0.0708159
0.0707605
0.0706416
0.0703376
0.0694215
0.066283
0.053283
0.0269326
0.0134122
0.00667833
0.00332557
0.0016556
0.000823939
0.000409926
0.000203904
0.000101412
5.04324e-05
2.50785e-05
1.247e-05
6.20009e-06
3.08246e-06
1.53236e-06
7.61706e-07
3.78599e-07
1.88174e-07
9.35305e-08
4.64952e-08
2.31316e-08
1.1514e-08
5.75318e-09
2.89752e-09
1.46057e-09
7.84929e-10
4.66098e-10
3.26234e-10
2.01331e-10
1.38024e-10
1.07533e-10
9.22534e-11
8.30722e-11
7.70047e-11
7.34146e-11
7.14537e-11
7.00533e-11
6.95413e-11
6.9238e-11
6.90329e-11
6.89198e-11
6.88566e-11
6.88091e-11
6.87868e-11
6.87728e-11
6.87669e-11
6.87639e-11
6.87612e-11
6.87602e-11
6.87594e-11
6.87591e-11
6.8759e-11
6.87589e-11
6.87589e-11
6.8759e-11
6.8759e-11
6.87591e-11
6.87591e-11
6.87592e-11
6.87593e-11
6.87594e-11
6.87595e-11
6.87595e-11
6.87596e-11
6.87597e-11
6.87598e-11
6.87599e-11
6.876e-11
6.87601e-11
6.87602e-11
6.87602e-11
6.87603e-11
6.87604e-11
6.87605e-11
6.87605e-11
6.87606e-11
6.87608e-11
6.87609e-11
6.87609e-11
6.8761e-11
6.87611e-11
6.87612e-11
6.87612e-11
6.87613e-11
6.87614e-11
6.87615e-11
6.87616e-11
6.87617e-11
6.87618e-11
6.87618e-11
6.87619e-11
6.8762e-11
6.87621e-11
6.87622e-11
6.87623e-11
6.87623e-11
6.87624e-11
6.87625e-11
6.87626e-11
6.87627e-11
6.87627e-11
6.87628e-11
6.87629e-11
6.8763e-11
6.87631e-11
6.87632e-11
6.87632e-11
6.87633e-11
6.87634e-11
6.87635e-11
6.87636e-11
6.87637e-11
6.87637e-11
6.87638e-11
6.87639e-11
6.8764e-11
6.87641e-11
6.87642e-11
6.87642e-11
6.87643e-11
6.87644e-11
6.87645e-11
6.87645e-11
6.87646e-11
6.87647e-11
6.87648e-11
6.87649e-11
6.8765e-11
6.8765e-11
6.87651e-11
6.87652e-11
6.87653e-11
6.87654e-11
6.87655e-11
6.87655e-11
6.87656e-11
6.87657e-11
6.87658e-11
6.87659e-11
6.87659e-11
6.8766e-11
6.87661e-11
6.87662e-11
6.87663e-11
6.87664e-11
6.87664e-11
6.87665e-11
6.87666e-11
6.87667e-11
6.87668e-11
6.87669e-11
6.87669e-11
6.8767e-11
6.87671e-11
6.87672e-11
6.87673e-11
6.87674e-11
6.87674e-11
6.87675e-11
6.87676e-11
6.87677e-11
6.87677e-11
6.87678e-11
6.87679e-11
6.8768e-11
6.87681e-11
6.87682e-11
6.87682e-11
6.87683e-11
6.87684e-11
6.87685e-11
6.87686e-11
6.87686e-11
6.87687e-11
6.87688e-11
6.87689e-11
6.8769e-11
6.87691e-11
6.87691e-11
6.87692e-11
6.87693e-11
6.87694e-11
6.87695e-11
6.87695e-11
6.87696e-11
6.87697e-11
6.87698e-11
6.87699e-11
6.877e-11
6.87701e-11
6.87701e-11
6.87702e-11
6.87703e-11
6.87704e-11
6.87705e-11
6.87706e-11
6.87707e-11
6.87707e-11
6.87708e-11
6.87709e-11
6.8771e-11
6.87711e-11
6.87712e-11
6.87712e-11
6.87713e-11
6.87714e-11
6.87715e-11
6.87716e-11
6.87717e-11
6.87718e-11
6.87718e-11
6.87719e-11
6.8772e-11
6.87721e-11
6.87722e-11
6.87723e-11
6.87723e-11
6.87724e-11
6.87725e-11
6.87726e-11
6.87727e-11
6.87728e-11
6.87729e-11
6.8773e-11
6.87731e-11
6.87732e-11
6.87733e-11
6.87733e-11
6.87734e-11
6.87735e-11
6.87736e-11
6.87737e-11
6.87738e-11
6.87738e-11
6.87739e-11
6.8774e-11
6.87741e-11
6.87742e-11
6.87743e-11
6.87744e-11
6.87745e-11
6.87746e-11
6.87746e-11
6.87747e-11
6.87748e-11
6.87749e-11
6.8775e-11
6.87751e-11
6.87752e-11
6.87753e-11
6.87754e-11
6.87755e-11
6.87756e-11
6.87756e-11
6.87757e-11
6.87758e-11
6.87759e-11
6.8776e-11
6.87761e-11
6.87762e-11
6.87763e-11
6.87763e-11
6.87764e-11
6.87765e-11
6.87766e-11
6.87767e-11
6.87768e-11
6.87769e-11
6.8777e-11
6.87771e-11
6.87772e-11
6.87773e-11
6.87774e-11
6.87774e-11
6.87776e-11
6.87776e-11
6.87777e-11
6.87778e-11
6.87779e-11
6.8778e-11
6.87781e-11
6.87782e-11
6.87783e-11
6.87784e-11
6.87785e-11
6.87786e-11
6.87787e-11
6.87787e-11
6.87789e-11
6.87789e-11
6.8779e-11
6.87791e-11
6.87792e-11
6.87793e-11
6.87794e-11
6.87795e-11
6.87796e-11
6.87797e-11
6.87798e-11
6.87799e-11
6.878e-11
6.87801e-11
6.87802e-11
6.87802e-11
6.87804e-11
6.87805e-11
6.87805e-11
6.87807e-11
6.87807e-11
6.87808e-11
6.87809e-11
6.8781e-11
6.87811e-11
6.87812e-11
6.87813e-11
6.87814e-11
6.87815e-11
6.87816e-11
6.87817e-11
6.87818e-11
6.87819e-11
6.8782e-11
6.87821e-11
6.87822e-11
6.87823e-11
6.87824e-11
6.87825e-11
6.87826e-11
6.87826e-11
6.87828e-11
6.87829e-11
6.8783e-11
6.87831e-11
6.87831e-11
6.87832e-11
6.87833e-11
6.87834e-11
6.87835e-11
6.87836e-11
6.87837e-11
6.87838e-11
6.87839e-11
6.8784e-11
6.87841e-11
6.87842e-11
6.87843e-11
6.87844e-11
6.87845e-11
6.87846e-11
6.87847e-11
6.87848e-11
6.87849e-11
6.8785e-11
6.87851e-11
6.87852e-11
6.87853e-11
6.87854e-11
6.87855e-11
6.87856e-11
6.87857e-11
6.87858e-11
6.87859e-11
6.8786e-11
6.87861e-11
6.87862e-11
6.87863e-11
6.87864e-11
6.87865e-11
6.87866e-11
6.87867e-11
6.87868e-11
6.87869e-11
6.8787e-11
6.87871e-11
6.87872e-11
6.87873e-11
6.87874e-11
6.87875e-11
6.87876e-11
6.87877e-11
6.87878e-11
6.87879e-11
6.8788e-11
6.87881e-11
6.87882e-11
6.87883e-11
6.87884e-11
6.87885e-11
6.87885e-11
6.87886e-11
6.87888e-11
6.87889e-11
6.87889e-11
6.87891e-11
6.87892e-11
6.87893e-11
6.87894e-11
6.87895e-11
6.87896e-11
6.87897e-11
6.87898e-11
6.87899e-11
6.879e-11
6.87901e-11
6.87902e-11
6.87903e-11
6.87904e-11
6.87905e-11
6.87905e-11
6.87907e-11
6.87908e-11
6.87909e-11
6.8791e-11
6.87911e-11
6.87912e-11
6.87913e-11
6.87914e-11
6.87915e-11
6.87916e-11
6.87917e-11
6.87918e-11
6.87919e-11
6.8792e-11
6.87921e-11
6.87922e-11
6.87923e-11
6.87924e-11
6.87925e-11
6.87926e-11
6.87927e-11
6.87928e-11
6.87929e-11
6.8793e-11
6.87931e-11
6.87932e-11
6.87933e-11
6.87934e-11
6.87935e-11
6.87936e-11
6.87937e-11
6.87938e-11
6.87939e-11
6.8794e-11
6.87941e-11
6.87942e-11
6.87943e-11
6.87944e-11
6.87946e-11
6.87947e-11
6.87948e-11
6.87949e-11
6.8795e-11
6.87951e-11
6.87952e-11
6.87952e-11
6.87954e-11
6.87955e-11
6.87956e-11
6.87957e-11
6.87958e-11
6.87959e-11
6.8796e-11
6.87961e-11
6.87962e-11
6.87963e-11
6.87964e-11
6.87965e-11
6.87966e-11
6.87967e-11
6.87968e-11
6.87969e-11
6.8797e-11
6.87971e-11
6.87973e-11
6.87974e-11
6.87975e-11
6.87976e-11
6.87977e-11
6.87978e-11
6.87979e-11
6.87979e-11
6.87981e-11
6.87982e-11
6.87983e-11
6.87984e-11
6.87985e-11
6.87986e-11
6.87987e-11
6.87988e-11
6.87989e-11
6.8799e-11
6.87991e-11
6.87992e-11
6.87993e-11
6.87994e-11
6.87995e-11
6.87996e-11
6.87997e-11
6.87998e-11
6.88e-11
6.88001e-11
6.88002e-11
6.88003e-11
6.88004e-11
6.88005e-11
6.88006e-11
6.88007e-11
6.88008e-11
6.88009e-11
6.8801e-11
6.88011e-11
6.88012e-11
6.88014e-11
6.88014e-11
6.88016e-11
6.88017e-11
6.88017e-11
6.88018e-11
6.88019e-11
6.8802e-11
6.88021e-11
6.88022e-11
6.88023e-11
6.88024e-11
6.88025e-11
6.88027e-11
6.88028e-11
6.88029e-11
6.8803e-11
6.88032e-11
6.88033e-11
6.88034e-11
6.88035e-11
6.88036e-11
6.88037e-11
6.88038e-11
6.88039e-11
6.8804e-11
6.88041e-11
6.88042e-11
6.88043e-11
6.88045e-11
6.88046e-11
6.88047e-11
6.88048e-11
6.88049e-11
6.8805e-11
6.88051e-11
6.88052e-11
6.88053e-11
6.88054e-11
6.88055e-11
6.88056e-11
6.88057e-11
6.88058e-11
6.88059e-11
6.88061e-11
6.88062e-11
6.88063e-11
6.88064e-11
6.88065e-11
6.88066e-11
6.88067e-11
6.88068e-11
6.88069e-11
6.8807e-11
6.88071e-11
6.88072e-11
6.88074e-11
6.88075e-11
6.88076e-11
6.88077e-11
6.88078e-11
6.88079e-11
6.8808e-11
6.88081e-11
6.88082e-11
6.88083e-11
6.88084e-11
6.88085e-11
6.88087e-11
6.88088e-11
6.88089e-11
6.8809e-11
6.88091e-11
6.88092e-11
6.88093e-11
6.88094e-11
6.88095e-11
6.88097e-11
6.88098e-11
6.88099e-11
6.881e-11
6.88101e-11
6.88102e-11
6.88103e-11
6.88105e-11
6.88106e-11
6.88107e-11
6.88107e-11
6.88109e-11
6.8811e-11
6.88111e-11
6.88112e-11
6.88113e-11
6.88114e-11
6.88116e-11
6.88116e-11
6.88118e-11
6.88119e-11
6.8812e-11
6.88121e-11
6.88122e-11
6.88123e-11
6.88124e-11
6.88125e-11
6.88127e-11
6.88128e-11
6.88129e-11
6.8813e-11
6.88131e-11
6.88132e-11
6.88133e-11
6.88135e-11
6.88136e-11
6.88137e-11
6.88138e-11
6.88139e-11
6.8814e-11
6.88141e-11
6.88143e-11
6.88144e-11
6.88145e-11
6.88146e-11
6.88147e-11
6.88148e-11
6.8815e-11
6.8815e-11
6.88151e-11
6.88153e-11
6.88154e-11
6.88155e-11
6.88156e-11
6.88157e-11
6.88158e-11
6.8816e-11
6.88161e-11
6.88162e-11
6.88163e-11
6.88164e-11
6.88165e-11
6.88166e-11
6.88168e-11
6.88169e-11
6.8817e-11
6.88171e-11
6.88172e-11
6.88173e-11
6.88175e-11
6.88175e-11
6.88177e-11
6.88178e-11
6.88179e-11
6.8818e-11
6.88182e-11
6.88183e-11
6.88184e-11
6.88185e-11
6.88186e-11
6.88187e-11
6.88188e-11
6.8819e-11
6.88191e-11
6.88192e-11
6.88193e-11
6.88195e-11
6.88195e-11
6.88197e-11
6.88198e-11
6.88199e-11
6.882e-11
6.88201e-11
6.88202e-11
6.88204e-11
6.88205e-11
6.88206e-11
6.88207e-11
6.88208e-11
6.8821e-11
6.88211e-11
6.88212e-11
6.88213e-11
6.88214e-11
6.88215e-11
6.88217e-11
6.88218e-11
6.88219e-11
6.8822e-11
6.88221e-11
6.88222e-11
6.88224e-11
6.88225e-11
6.88226e-11
6.88227e-11
6.88228e-11
6.88229e-11
6.8823e-11
6.88231e-11
6.88233e-11
6.88234e-11
6.88235e-11
6.88237e-11
6.88238e-11
6.8824e-11
6.88241e-11
6.88242e-11
6.88243e-11
6.88244e-11
6.88245e-11
6.88246e-11
6.88248e-11
6.88249e-11
6.8825e-11
6.88251e-11
6.88252e-11
6.88253e-11
6.88255e-11
6.88256e-11
6.88257e-11
6.88258e-11
6.8826e-11
6.88261e-11
6.88262e-11
6.88263e-11
6.88264e-11
6.88266e-11
)
;

boundaryField
{
    fixedWall
    {
        type            zeroGradient;
    }
    outlet
    {
        type            inletOutlet;
        inletValue      uniform 0;
        value           uniform 6.88266e-11;
    }
    defaultFaces
    {
        type            empty;
    }
}


// ************************************************************************* //
