/*--------------------------------*- C++ -*----------------------------------*\
| =========                 |                                                 |
| \\      /  F ield         | OpenFOAM: The Open Source CFD Toolbox           |
|  \\    /   O peration     | Version:  2406                                  |
|   \\  /    A nd           | Website:  www.openfoam.com                      |
|    \\/     M anipulation  |                                                 |
\*---------------------------------------------------------------------------*/
FoamFile
{
    version     2.0;
    format      ascii;
    arch        "LSB;label=32;scalar=64";
    class       volScalarField;
    location    "1.7";
    object      H2O;
}
// * * * * * * * * * * * * * * * * * * * * * * * * * * * * * * * * * * * * * //

dimensions      [0 0 0 0 0 0 0];

internalField   nonuniform List<scalar> 
1000
(
0.0580662
0.0580662
0.0580662
0.0580662
0.0580662
0.0580662
0.0580662
0.0580662
0.0580662
0.0580662
0.0580662
0.0580662
0.0580662
0.0580662
0.0580662
0.0580663
0.0580663
0.0580663
0.0580663
0.0580663
0.0580663
0.0580663
0.0580663
0.0580663
0.0580663
0.0580664
0.0580664
0.0580664
0.0580664
0.0580664
0.0580664
0.0580664
0.0580664
0.0580664
0.0580664
0.0580664
0.0580664
0.0580664
0.0580664
0.0580664
0.0580664
0.0580664
0.0580664
0.0580664
0.0580664
0.0580664
0.0580664
0.0580664
0.0580664
0.0580664
0.0580664
0.0580664
0.0580664
0.0580664
0.0580664
0.0580664
0.0580664
0.0580664
0.0580664
0.0580664
0.0580664
0.0580664
0.0580664
0.0580663
0.0580663
0.0580663
0.0580663
0.0580663
0.0580663
0.0580663
0.0580663
0.0580663
0.0580663
0.0580663
0.0580663
0.0580663
0.0580663
0.0580663
0.0580663
0.0580663
0.0580663
0.0580662
0.0580662
0.0580662
0.0580662
0.0580662
0.0580662
0.0580662
0.0580662
0.0580662
0.0580662
0.0580662
0.0580662
0.0580662
0.0580662
0.0580662
0.0580662
0.0580661
0.0580661
0.0580661
0.0580661
0.0580661
0.0580661
0.0580661
0.0580661
0.0580661
0.0580661
0.0580661
0.0580661
0.0580661
0.0580661
0.058066
0.058066
0.058066
0.058066
0.058066
0.058066
0.058066
0.058066
0.058066
0.058066
0.058066
0.0580659
0.0580659
0.0580659
0.0580659
0.0580659
0.0580659
0.0580659
0.0580659
0.0580659
0.0580659
0.0580658
0.0580658
0.0580658
0.0580658
0.0580658
0.0580658
0.0580658
0.0580658
0.0580657
0.0580657
0.0580657
0.0580657
0.0580657
0.0580657
0.0580657
0.0580657
0.0580656
0.0580656
0.0580656
0.0580656
0.0580656
0.0580656
0.0580655
0.0580655
0.0580655
0.0580655
0.0580655
0.0580655
0.0580654
0.0580654
0.0580654
0.0580654
0.0580654
0.0580653
0.0580653
0.0580653
0.0580653
0.0580653
0.0580652
0.0580652
0.0580652
0.0580652
0.0580651
0.0580651
0.0580651
0.0580651
0.058065
0.058065
0.058065
0.0580649
0.0580649
0.0580649
0.0580648
0.0580648
0.0580648
0.0580647
0.0580647
0.0580647
0.0580646
0.0580646
0.0580646
0.0580645
0.0580645
0.0580644
0.0580644
0.0580643
0.0580643
0.0580642
0.0580642
0.0580641
0.0580641
0.058064
0.0580639
0.0580639
0.0580638
0.0580637
0.0580637
0.0580636
0.0580635
0.0580634
0.0580633
0.0580632
0.0580632
0.0580631
0.0580629
0.0580628
0.0580627
0.0580626
0.0580625
0.0580623
0.0580622
0.0580621
0.0580619
0.0580617
0.0580616
0.0580614
0.0580612
0.0580609
0.0580607
0.0580605
0.0580602
0.0580599
0.0580596
0.0580592
0.0580588
0.0580584
0.058058
0.0580575
0.0580569
0.0580563
0.0580556
0.0580548
0.0580539
0.0580529
0.0580517
0.0580503
0.0580487
0.0580468
0.0580443
0.0580413
0.0580374
0.0580324
0.0580255
0.0580157
0.0580009
0.0579764
0.057931
0.0578337
0.0575847
0.0568348
0.0542653
0.0436223
0.0220494
0.0109804
0.00546749
0.00272262
0.00135543
0.000674551
0.000335602
0.000166934
8.30248e-05
4.12886e-05
2.05315e-05
1.0209e-05
5.07596e-06
2.52359e-06
1.25453e-06
6.23602e-07
3.09956e-07
1.54056e-07
7.65726e-08
3.80652e-08
1.89376e-08
9.42638e-09
4.71008e-09
2.37217e-09
1.19576e-09
6.42614e-10
3.8159e-10
2.67085e-10
1.64828e-10
1.12999e-10
8.80364e-11
7.5527e-11
6.80104e-11
6.30431e-11
6.01039e-11
5.84985e-11
5.7352e-11
5.69329e-11
5.66845e-11
5.65166e-11
5.64241e-11
5.63723e-11
5.63334e-11
5.63152e-11
5.63037e-11
5.62988e-11
5.62964e-11
5.62942e-11
5.62934e-11
5.62927e-11
5.62925e-11
5.62924e-11
5.62923e-11
5.62923e-11
5.62924e-11
5.62924e-11
5.62924e-11
5.62925e-11
5.62926e-11
5.62926e-11
5.62927e-11
5.62928e-11
5.62928e-11
5.62929e-11
5.6293e-11
5.6293e-11
5.62931e-11
5.62932e-11
5.62933e-11
5.62933e-11
5.62934e-11
5.62935e-11
5.62935e-11
5.62936e-11
5.62936e-11
5.62937e-11
5.62938e-11
5.62939e-11
5.6294e-11
5.6294e-11
5.62941e-11
5.62942e-11
5.62942e-11
5.62943e-11
5.62944e-11
5.62944e-11
5.62945e-11
5.62946e-11
5.62946e-11
5.62947e-11
5.62948e-11
5.62948e-11
5.62949e-11
5.6295e-11
5.62951e-11
5.62951e-11
5.62952e-11
5.62953e-11
5.62953e-11
5.62954e-11
5.62954e-11
5.62955e-11
5.62956e-11
5.62957e-11
5.62957e-11
5.62958e-11
5.62958e-11
5.62959e-11
5.6296e-11
5.62961e-11
5.62961e-11
5.62962e-11
5.62963e-11
5.62963e-11
5.62964e-11
5.62965e-11
5.62966e-11
5.62966e-11
5.62967e-11
5.62967e-11
5.62968e-11
5.62969e-11
5.62969e-11
5.6297e-11
5.62971e-11
5.62971e-11
5.62972e-11
5.62973e-11
5.62973e-11
5.62974e-11
5.62975e-11
5.62975e-11
5.62976e-11
5.62977e-11
5.62977e-11
5.62978e-11
5.62979e-11
5.62979e-11
5.6298e-11
5.62981e-11
5.62982e-11
5.62982e-11
5.62983e-11
5.62983e-11
5.62984e-11
5.62985e-11
5.62985e-11
5.62986e-11
5.62987e-11
5.62987e-11
5.62988e-11
5.62989e-11
5.62989e-11
5.6299e-11
5.62991e-11
5.62992e-11
5.62992e-11
5.62993e-11
5.62994e-11
5.62994e-11
5.62995e-11
5.62995e-11
5.62996e-11
5.62997e-11
5.62997e-11
5.62998e-11
5.62999e-11
5.63e-11
5.63e-11
5.63001e-11
5.63002e-11
5.63002e-11
5.63003e-11
5.63003e-11
5.63004e-11
5.63005e-11
5.63006e-11
5.63006e-11
5.63007e-11
5.63008e-11
5.63008e-11
5.63009e-11
5.6301e-11
5.6301e-11
5.63011e-11
5.63012e-11
5.63012e-11
5.63013e-11
5.63014e-11
5.63014e-11
5.63015e-11
5.63016e-11
5.63017e-11
5.63017e-11
5.63018e-11
5.63019e-11
5.63019e-11
5.6302e-11
5.63021e-11
5.63021e-11
5.63022e-11
5.63023e-11
5.63023e-11
5.63024e-11
5.63025e-11
5.63026e-11
5.63026e-11
5.63027e-11
5.63028e-11
5.63028e-11
5.63029e-11
5.6303e-11
5.6303e-11
5.63031e-11
5.63032e-11
5.63033e-11
5.63033e-11
5.63034e-11
5.63035e-11
5.63036e-11
5.63036e-11
5.63037e-11
5.63038e-11
5.63038e-11
5.63039e-11
5.6304e-11
5.63041e-11
5.63041e-11
5.63042e-11
5.63043e-11
5.63043e-11
5.63044e-11
5.63045e-11
5.63045e-11
5.63046e-11
5.63047e-11
5.63047e-11
5.63048e-11
5.63049e-11
5.6305e-11
5.63051e-11
5.63051e-11
5.63052e-11
5.63053e-11
5.63053e-11
5.63054e-11
5.63055e-11
5.63056e-11
5.63056e-11
5.63057e-11
5.63058e-11
5.63059e-11
5.63059e-11
5.6306e-11
5.63061e-11
5.63062e-11
5.63062e-11
5.63063e-11
5.63064e-11
5.63064e-11
5.63065e-11
5.63066e-11
5.63067e-11
5.63067e-11
5.63068e-11
5.63069e-11
5.6307e-11
5.6307e-11
5.63071e-11
5.63072e-11
5.63073e-11
5.63074e-11
5.63074e-11
5.63075e-11
5.63076e-11
5.63077e-11
5.63077e-11
5.63078e-11
5.63079e-11
5.63079e-11
5.6308e-11
5.63081e-11
5.63082e-11
5.63083e-11
5.63083e-11
5.63084e-11
5.63085e-11
5.63086e-11
5.63086e-11
5.63087e-11
5.63088e-11
5.63089e-11
5.6309e-11
5.6309e-11
5.63091e-11
5.63092e-11
5.63093e-11
5.63093e-11
5.63094e-11
5.63095e-11
5.63096e-11
5.63096e-11
5.63097e-11
5.63098e-11
5.63099e-11
5.631e-11
5.631e-11
5.63101e-11
5.63102e-11
5.63102e-11
5.63103e-11
5.63104e-11
5.63105e-11
5.63106e-11
5.63107e-11
5.63107e-11
5.63108e-11
5.63109e-11
5.6311e-11
5.6311e-11
5.63111e-11
5.63112e-11
5.63113e-11
5.63114e-11
5.63115e-11
5.63115e-11
5.63116e-11
5.63117e-11
5.63117e-11
5.63118e-11
5.63119e-11
5.6312e-11
5.63121e-11
5.63122e-11
5.63122e-11
5.63123e-11
5.63124e-11
5.63125e-11
5.63125e-11
5.63126e-11
5.63127e-11
5.63128e-11
5.63129e-11
5.63129e-11
5.6313e-11
5.63131e-11
5.63132e-11
5.63133e-11
5.63133e-11
5.63134e-11
5.63135e-11
5.63136e-11
5.63137e-11
5.63137e-11
5.63138e-11
5.63139e-11
5.6314e-11
5.63141e-11
5.63142e-11
5.63142e-11
5.63143e-11
5.63144e-11
5.63145e-11
5.63145e-11
5.63146e-11
5.63147e-11
5.63148e-11
5.63149e-11
5.6315e-11
5.6315e-11
5.63151e-11
5.63152e-11
5.63153e-11
5.63154e-11
5.63155e-11
5.63155e-11
5.63156e-11
5.63157e-11
5.63158e-11
5.63159e-11
5.63159e-11
5.6316e-11
5.63161e-11
5.63162e-11
5.63163e-11
5.63163e-11
5.63164e-11
5.63165e-11
5.63166e-11
5.63167e-11
5.63168e-11
5.63168e-11
5.63169e-11
5.6317e-11
5.63171e-11
5.63172e-11
5.63173e-11
5.63174e-11
5.63174e-11
5.63175e-11
5.63176e-11
5.63177e-11
5.63178e-11
5.63178e-11
5.63179e-11
5.6318e-11
5.63181e-11
5.63182e-11
5.63182e-11
5.63183e-11
5.63184e-11
5.63185e-11
5.63186e-11
5.63187e-11
5.63187e-11
5.63188e-11
5.63189e-11
5.6319e-11
5.63191e-11
5.63192e-11
5.63192e-11
5.63193e-11
5.63194e-11
5.63195e-11
5.63196e-11
5.63197e-11
5.63197e-11
5.63198e-11
5.63199e-11
5.632e-11
5.63201e-11
5.63202e-11
5.63202e-11
5.63203e-11
5.63204e-11
5.63205e-11
5.63206e-11
5.63206e-11
5.63207e-11
5.63208e-11
5.63209e-11
5.6321e-11
5.6321e-11
5.63212e-11
5.63212e-11
5.63213e-11
5.63214e-11
5.63215e-11
5.63216e-11
5.63217e-11
5.63217e-11
5.63218e-11
5.63219e-11
5.6322e-11
5.63221e-11
5.63222e-11
5.63222e-11
5.63224e-11
5.63224e-11
5.63225e-11
5.63226e-11
5.63227e-11
5.63228e-11
5.63229e-11
5.63229e-11
5.6323e-11
5.63231e-11
5.63232e-11
5.63232e-11
5.63234e-11
5.63234e-11
5.63235e-11
5.63236e-11
5.63237e-11
5.63238e-11
5.63239e-11
5.6324e-11
5.63241e-11
5.63241e-11
5.63242e-11
5.63243e-11
5.63244e-11
5.63245e-11
5.63245e-11
5.63246e-11
5.63247e-11
5.63248e-11
5.63249e-11
5.6325e-11
5.63251e-11
5.63251e-11
5.63252e-11
5.63253e-11
5.63254e-11
5.63255e-11
5.63256e-11
5.63257e-11
5.63257e-11
5.63258e-11
5.6326e-11
5.6326e-11
5.63261e-11
5.63262e-11
5.63263e-11
5.63264e-11
5.63265e-11
5.63265e-11
5.63266e-11
5.63267e-11
5.63268e-11
5.63269e-11
5.63269e-11
5.63271e-11
5.63271e-11
5.63272e-11
5.63273e-11
5.63274e-11
5.63275e-11
5.63275e-11
5.63276e-11
5.63277e-11
5.63278e-11
5.63279e-11
5.63279e-11
5.6328e-11
5.63281e-11
5.63282e-11
5.63283e-11
5.63284e-11
5.63286e-11
5.63286e-11
5.63287e-11
5.63288e-11
5.63289e-11
5.6329e-11
5.6329e-11
5.63291e-11
5.63292e-11
5.63293e-11
5.63294e-11
5.63295e-11
5.63296e-11
5.63297e-11
5.63298e-11
5.63299e-11
5.63299e-11
5.63301e-11
5.63301e-11
5.63302e-11
5.63303e-11
5.63304e-11
5.63305e-11
5.63305e-11
5.63306e-11
5.63307e-11
5.63308e-11
5.63309e-11
5.6331e-11
5.63311e-11
5.63312e-11
5.63313e-11
5.63314e-11
5.63314e-11
5.63315e-11
5.63316e-11
5.63317e-11
5.63318e-11
5.63319e-11
5.6332e-11
5.63321e-11
5.63322e-11
5.63323e-11
5.63323e-11
5.63324e-11
5.63325e-11
5.63326e-11
5.63327e-11
5.63328e-11
5.63329e-11
5.63329e-11
5.63331e-11
5.63331e-11
5.63332e-11
5.63333e-11
5.63334e-11
5.63335e-11
5.63336e-11
5.63337e-11
5.63337e-11
5.63339e-11
5.63339e-11
5.6334e-11
5.63341e-11
5.63342e-11
5.63343e-11
5.63344e-11
5.63345e-11
5.63346e-11
5.63347e-11
5.63347e-11
5.63349e-11
5.6335e-11
5.63351e-11
5.63351e-11
5.63352e-11
5.63353e-11
5.63354e-11
5.63355e-11
5.63356e-11
5.63357e-11
5.63358e-11
5.63359e-11
5.63359e-11
5.63361e-11
5.63361e-11
5.63362e-11
5.63363e-11
5.63364e-11
5.63365e-11
5.63366e-11
5.63367e-11
5.63368e-11
5.63369e-11
5.6337e-11
5.63371e-11
5.63372e-11
5.63372e-11
5.63373e-11
5.63374e-11
5.63375e-11
5.63376e-11
5.63377e-11
5.63378e-11
5.63379e-11
5.6338e-11
5.63381e-11
5.63382e-11
5.63383e-11
5.63384e-11
5.63385e-11
5.63385e-11
5.63387e-11
5.63387e-11
5.63388e-11
5.63389e-11
5.6339e-11
5.63391e-11
5.63392e-11
5.63393e-11
5.63394e-11
5.63395e-11
5.63396e-11
5.63397e-11
5.63398e-11
5.63398e-11
5.634e-11
5.63401e-11
5.63401e-11
5.63403e-11
5.63403e-11
5.63404e-11
5.63405e-11
5.63406e-11
5.63407e-11
5.63408e-11
5.63409e-11
5.6341e-11
5.63411e-11
5.63412e-11
5.63413e-11
5.63414e-11
5.63415e-11
5.63416e-11
5.63417e-11
5.63418e-11
5.63419e-11
5.6342e-11
5.63421e-11
5.63422e-11
5.63422e-11
5.63423e-11
5.63424e-11
5.63425e-11
5.63426e-11
5.63427e-11
5.63428e-11
5.63429e-11
5.6343e-11
5.63431e-11
5.63432e-11
5.63433e-11
5.63434e-11
5.63435e-11
5.63436e-11
5.63437e-11
5.63438e-11
5.63439e-11
5.6344e-11
5.63441e-11
5.63442e-11
5.63443e-11
5.63444e-11
5.63444e-11
5.63445e-11
5.63446e-11
5.63447e-11
5.63448e-11
5.63449e-11
5.6345e-11
5.63451e-11
5.63452e-11
5.63453e-11
5.63454e-11
5.63456e-11
5.63457e-11
5.63457e-11
5.63458e-11
5.63459e-11
5.6346e-11
5.63461e-11
5.63462e-11
5.63463e-11
5.63464e-11
5.63465e-11
5.63466e-11
5.63467e-11
5.63468e-11
5.63469e-11
5.6347e-11
5.63471e-11
5.63472e-11
5.63473e-11
5.63474e-11
5.63475e-11
5.63476e-11
5.63477e-11
)
;

boundaryField
{
    fixedWall
    {
        type            zeroGradient;
    }
    outlet
    {
        type            inletOutlet;
        inletValue      uniform 0;
        value           uniform 5.63477e-11;
    }
    defaultFaces
    {
        type            empty;
    }
}


// ************************************************************************* //
