/*--------------------------------*- C++ -*----------------------------------*\
| =========                 |                                                 |
| \\      /  F ield         | OpenFOAM: The Open Source CFD Toolbox           |
|  \\    /   O peration     | Version:  2406                                  |
|   \\  /    A nd           | Website:  www.openfoam.com                      |
|    \\/     M anipulation  |                                                 |
\*---------------------------------------------------------------------------*/
FoamFile
{
    version     2.0;
    format      ascii;
    arch        "LSB;label=32;scalar=64";
    class       surfaceScalarField;
    location    "1.7";
    object      phi;
}
// * * * * * * * * * * * * * * * * * * * * * * * * * * * * * * * * * * * * * //

dimensions      [1 0 -1 0 0 0 0];

oriented        oriented;

internalField   nonuniform List<scalar> 
999
(
-3.13468e-07
-8.40106e-07
-1.42923e-06
-2.03453e-06
-2.63794e-06
-3.20443e-06
-3.74848e-06
-4.27235e-06
-4.77558e-06
-5.25816e-06
-5.72062e-06
-6.16366e-06
-6.58804e-06
-6.99446e-06
-7.38361e-06
-7.7561e-06
-8.11251e-06
-8.45339e-06
-8.77924e-06
-9.09054e-06
-9.38773e-06
-9.67125e-06
-9.94148e-06
-1.01988e-05
-1.04437e-05
-1.06764e-05
-1.08973e-05
-1.11067e-05
-1.13051e-05
-1.14928e-05
-1.167e-05
-1.18371e-05
-1.19946e-05
-1.21426e-05
-1.22816e-05
-1.24119e-05
-1.25339e-05
-1.26479e-05
-1.27542e-05
-1.28521e-05
-1.29435e-05
-1.30283e-05
-1.31069e-05
-1.31796e-05
-1.32466e-05
-1.33083e-05
-1.33649e-05
-1.34167e-05
-1.3464e-05
-1.35072e-05
-1.35464e-05
-1.3582e-05
-1.36142e-05
-1.36432e-05
-1.36694e-05
-1.3693e-05
-1.37141e-05
-1.3733e-05
-1.37498e-05
-1.37648e-05
-1.37782e-05
-1.379e-05
-1.38005e-05
-1.38098e-05
-1.38181e-05
-1.38254e-05
-1.38318e-05
-1.38375e-05
-1.38426e-05
-1.38471e-05
-1.38511e-05
-1.38548e-05
-1.3858e-05
-1.3861e-05
-1.38638e-05
-1.38663e-05
-1.38687e-05
-1.3871e-05
-1.38731e-05
-1.38752e-05
-1.38772e-05
-1.38792e-05
-1.38812e-05
-1.38832e-05
-1.38852e-05
-1.38872e-05
-1.38893e-05
-1.38913e-05
-1.38934e-05
-1.38955e-05
-1.38977e-05
-1.38999e-05
-1.39021e-05
-1.39044e-05
-1.39067e-05
-1.3909e-05
-1.39114e-05
-1.39137e-05
-1.39161e-05
-1.39186e-05
-1.3921e-05
-1.39235e-05
-1.39259e-05
-1.39284e-05
-1.39309e-05
-1.39333e-05
-1.39358e-05
-1.39383e-05
-1.39408e-05
-1.39432e-05
-1.39457e-05
-1.39481e-05
-1.39505e-05
-1.39529e-05
-1.39553e-05
-1.39577e-05
-1.39601e-05
-1.39624e-05
-1.39648e-05
-1.39671e-05
-1.39694e-05
-1.39717e-05
-1.39739e-05
-1.39762e-05
-1.39784e-05
-1.39807e-05
-1.39829e-05
-1.39851e-05
-1.39874e-05
-1.39896e-05
-1.39918e-05
-1.3994e-05
-1.39963e-05
-1.39985e-05
-1.40008e-05
-1.40031e-05
-1.40054e-05
-1.40077e-05
-1.401e-05
-1.40124e-05
-1.40147e-05
-1.40171e-05
-1.40196e-05
-1.4022e-05
-1.40245e-05
-1.4027e-05
-1.40295e-05
-1.40321e-05
-1.40347e-05
-1.40373e-05
-1.40399e-05
-1.40425e-05
-1.40451e-05
-1.40478e-05
-1.40504e-05
-1.40531e-05
-1.40558e-05
-1.40584e-05
-1.40611e-05
-1.40637e-05
-1.40664e-05
-1.4069e-05
-1.40716e-05
-1.40742e-05
-1.40767e-05
-1.40793e-05
-1.40817e-05
-1.40842e-05
-1.40866e-05
-1.4089e-05
-1.40914e-05
-1.40938e-05
-1.40961e-05
-1.40984e-05
-1.41006e-05
-1.41029e-05
-1.41051e-05
-1.41073e-05
-1.41096e-05
-1.41118e-05
-1.4114e-05
-1.41162e-05
-1.41185e-05
-1.41208e-05
-1.41231e-05
-1.41254e-05
-1.41277e-05
-1.41301e-05
-1.41325e-05
-1.41349e-05
-1.41373e-05
-1.41398e-05
-1.41423e-05
-1.41449e-05
-1.41474e-05
-1.415e-05
-1.41526e-05
-1.41551e-05
-1.41577e-05
-1.41603e-05
-1.41629e-05
-1.41654e-05
-1.4168e-05
-1.41705e-05
-1.4173e-05
-1.41754e-05
-1.41778e-05
-1.41801e-05
-1.41823e-05
-1.41845e-05
-1.41867e-05
-1.41887e-05
-1.41907e-05
-1.41926e-05
-1.41945e-05
-1.41962e-05
-1.41979e-05
-1.41996e-05
-1.42012e-05
-1.42027e-05
-1.42042e-05
-1.42057e-05
-1.42072e-05
-1.42088e-05
-1.42104e-05
-1.42122e-05
-1.4214e-05
-1.42161e-05
-1.42182e-05
-1.42206e-05
-1.4223e-05
-1.42255e-05
-1.42281e-05
-1.42305e-05
-1.42328e-05
-1.42347e-05
-1.42362e-05
-1.42371e-05
-1.42374e-05
-1.42369e-05
-1.42357e-05
-1.42336e-05
-1.42306e-05
-1.42269e-05
-1.42225e-05
-1.42173e-05
-1.42116e-05
-1.42055e-05
-1.41993e-05
-1.41933e-05
-1.41877e-05
-1.41825e-05
-1.41762e-05
-1.41654e-05
-1.41439e-05
-1.41029e-05
-1.40316e-05
-1.39174e-05
-1.37363e-05
-1.34192e-05
-1.26857e-05
-1.03092e-05
5.29312e-07
0.000149688
0.000322976
0.000495088
0.000639345
0.000742607
0.000808338
0.000847117
0.00086898
0.000880993
0.000887499
0.000890993
0.00089286
0.000893853
0.000894379
0.000894655
0.000894798
0.00089487
0.000894905
0.000894919
0.000894922
0.000894919
0.000894914
0.000894907
0.000894899
0.00089489
0.000894881
0.000894872
0.000894864
0.000894855
0.000894846
0.000894837
0.000894828
0.000894819
0.00089481
0.000894801
0.000894792
0.000894783
0.000894774
0.000894765
0.000894756
0.000894747
0.000894738
0.000894729
0.00089472
0.000894711
0.000894702
0.000894694
0.000894685
0.000894676
0.000894667
0.000894658
0.000894649
0.00089464
0.000894632
0.000894623
0.000894614
0.000894605
0.000894596
0.000894587
0.000894579
0.00089457
0.000894561
0.000894552
0.000894543
0.000894535
0.000894526
0.000894517
0.000894508
0.0008945
0.000894491
0.000894482
0.000894473
0.000894465
0.000894456
0.000894447
0.000894439
0.00089443
0.000894421
0.000894413
0.000894404
0.000894395
0.000894387
0.000894378
0.000894369
0.000894361
0.000894352
0.000894343
0.000894335
0.000894326
0.000894318
0.000894309
0.000894301
0.000894292
0.000894283
0.000894275
0.000894266
0.000894258
0.000894249
0.000894241
0.000894232
0.000894224
0.000894215
0.000894207
0.000894198
0.00089419
0.000894181
0.000894173
0.000894164
0.000894156
0.000894148
0.000894139
0.000894131
0.000894122
0.000894114
0.000894106
0.000894097
0.000894089
0.000894081
0.000894072
0.000894064
0.000894056
0.000894047
0.000894039
0.000894031
0.000894022
0.000894014
0.000894006
0.000893997
0.000893989
0.000893981
0.000893973
0.000893964
0.000893956
0.000893948
0.00089394
0.000893932
0.000893923
0.000893915
0.000893907
0.000893899
0.000893891
0.000893883
0.000893874
0.000893866
0.000893858
0.00089385
0.000893842
0.000893834
0.000893826
0.000893818
0.00089381
0.000893802
0.000893794
0.000893786
0.000893778
0.00089377
0.000893762
0.000893754
0.000893746
0.000893738
0.00089373
0.000893722
0.000893714
0.000893706
0.000893698
0.00089369
0.000893682
0.000893674
0.000893666
0.000893658
0.000893651
0.000893643
0.000893635
0.000893627
0.000893619
0.000893611
0.000893604
0.000893596
0.000893588
0.00089358
0.000893572
0.000893565
0.000893557
0.000893549
0.000893542
0.000893534
0.000893526
0.000893518
0.000893511
0.000893503
0.000893495
0.000893488
0.00089348
0.000893472
0.000893465
0.000893457
0.00089345
0.000893442
0.000893434
0.000893427
0.000893419
0.000893412
0.000893404
0.000893397
0.000893389
0.000893382
0.000893374
0.000893367
0.000893359
0.000893352
0.000893344
0.000893337
0.00089333
0.000893322
0.000893315
0.000893307
0.0008933
0.000893293
0.000893285
0.000893278
0.000893271
0.000893263
0.000893256
0.000893249
0.000893241
0.000893234
0.000893227
0.000893219
0.000893212
0.000893205
0.000893198
0.000893191
0.000893183
0.000893176
0.000893169
0.000893162
0.000893155
0.000893148
0.00089314
0.000893133
0.000893126
0.000893119
0.000893112
0.000893105
0.000893098
0.000893091
0.000893084
0.000893077
0.00089307
0.000893063
0.000893056
0.000893049
0.000893042
0.000893035
0.000893028
0.000893021
0.000893014
0.000893007
0.000893
0.000892993
0.000892986
0.000892979
0.000892973
0.000892966
0.000892959
0.000892952
0.000892945
0.000892938
0.000892932
0.000892925
0.000892918
0.000892911
0.000892905
0.000892898
0.000892891
0.000892884
0.000892878
0.000892871
0.000892864
0.000892858
0.000892851
0.000892844
0.000892838
0.000892831
0.000892825
0.000892818
0.000892812
0.000892805
0.000892798
0.000892792
0.000892785
0.000892779
0.000892772
0.000892766
0.000892759
0.000892753
0.000892747
0.00089274
0.000892734
0.000892727
0.000892721
0.000892714
0.000892708
0.000892702
0.000892695
0.000892689
0.000892683
0.000892676
0.00089267
0.000892664
0.000892658
0.000892651
0.000892645
0.000892639
0.000892633
0.000892626
0.00089262
0.000892614
0.000892608
0.000892602
0.000892596
0.000892589
0.000892583
0.000892577
0.000892571
0.000892565
0.000892559
0.000892553
0.000892547
0.000892541
0.000892535
0.000892529
0.000892523
0.000892517
0.000892511
0.000892505
0.000892499
0.000892493
0.000892487
0.000892481
0.000892475
0.00089247
0.000892464
0.000892458
0.000892452
0.000892446
0.00089244
0.000892435
0.000892429
0.000892423
0.000892417
0.000892412
0.000892406
0.0008924
0.000892395
0.000892389
0.000892383
0.000892377
0.000892372
0.000892366
0.000892361
0.000892355
0.000892349
0.000892344
0.000892338
0.000892333
0.000892327
0.000892322
0.000892316
0.000892311
0.000892305
0.0008923
0.000892294
0.000892289
0.000892283
0.000892278
0.000892272
0.000892267
0.000892262
0.000892256
0.000892251
0.000892246
0.00089224
0.000892235
0.00089223
0.000892224
0.000892219
0.000892214
0.000892209
0.000892203
0.000892198
0.000892193
0.000892188
0.000892183
0.000892177
0.000892172
0.000892167
0.000892162
0.000892157
0.000892152
0.000892147
0.000892142
0.000892137
0.000892132
0.000892127
0.000892122
0.000892117
0.000892112
0.000892107
0.000892102
0.000892097
0.000892092
0.000892087
0.000892082
0.000892077
0.000892072
0.000892067
0.000892063
0.000892058
0.000892053
0.000892048
0.000892043
0.000892039
0.000892034
0.000892029
0.000892024
0.00089202
0.000892015
0.00089201
0.000892006
0.000892001
0.000891996
0.000891992
0.000891987
0.000891982
0.000891978
0.000891973
0.000891969
0.000891964
0.00089196
0.000891955
0.000891951
0.000891946
0.000891942
0.000891937
0.000891933
0.000891928
0.000891924
0.000891919
0.000891915
0.000891911
0.000891906
0.000891902
0.000891898
0.000891893
0.000891889
0.000891885
0.00089188
0.000891876
0.000891872
0.000891868
0.000891863
0.000891859
0.000891855
0.000891851
0.000891847
0.000891843
0.000891838
0.000891834
0.00089183
0.000891826
0.000891822
0.000891818
0.000891814
0.00089181
0.000891806
0.000891802
0.000891798
0.000891794
0.00089179
0.000891786
0.000891782
0.000891778
0.000891774
0.00089177
0.000891767
0.000891763
0.000891759
0.000891755
0.000891751
0.000891747
0.000891744
0.00089174
0.000891736
0.000891732
0.000891729
0.000891725
0.000891721
0.000891718
0.000891714
0.00089171
0.000891707
0.000891703
0.000891699
0.000891696
0.000891692
0.000891689
0.000891685
0.000891682
0.000891678
0.000891675
0.000891671
0.000891668
0.000891664
0.000891661
0.000891657
0.000891654
0.00089165
0.000891647
0.000891644
0.00089164
0.000891637
0.000891634
0.00089163
0.000891627
0.000891624
0.00089162
0.000891617
0.000891614
0.000891611
0.000891607
0.000891604
0.000891601
0.000891598
0.000891595
0.000891592
0.000891589
0.000891585
0.000891582
0.000891579
0.000891576
0.000891573
0.00089157
0.000891567
0.000891564
0.000891561
0.000891558
0.000891555
0.000891552
0.000891549
0.000891546
0.000891544
0.000891541
0.000891538
0.000891535
0.000891532
0.000891529
0.000891526
0.000891524
0.000891521
0.000891518
0.000891515
0.000891513
0.00089151
0.000891507
0.000891505
0.000891502
0.000891499
0.000891497
0.000891494
0.000891491
0.000891489
0.000891486
0.000891484
0.000891481
0.000891479
0.000891476
0.000891474
0.000891471
0.000891469
0.000891466
0.000891464
0.000891461
0.000891459
0.000891456
0.000891454
0.000891452
0.000891449
0.000891447
0.000891445
0.000891442
0.00089144
0.000891438
0.000891435
0.000891433
0.000891431
0.000891429
0.000891427
0.000891424
0.000891422
0.00089142
0.000891418
0.000891416
0.000891414
0.000891412
0.000891409
0.000891407
0.000891405
0.000891403
0.000891401
0.000891399
0.000891397
0.000891395
0.000891393
0.000891391
0.000891389
0.000891388
0.000891386
0.000891384
0.000891382
0.00089138
0.000891378
0.000891376
0.000891375
0.000891373
0.000891371
0.000891369
0.000891367
0.000891366
0.000891364
0.000891362
0.000891361
0.000891359
0.000891357
0.000891356
0.000891354
0.000891352
0.000891351
0.000891349
0.000891348
0.000891346
0.000891345
0.000891343
0.000891341
0.00089134
0.000891339
0.000891337
0.000891336
0.000891334
0.000891333
0.000891331
0.00089133
0.000891329
0.000891327
0.000891326
0.000891325
0.000891323
0.000891322
0.000891321
0.000891319
0.000891318
0.000891317
0.000891316
0.000891315
0.000891313
0.000891312
0.000891311
0.00089131
0.000891309
0.000891308
0.000891307
0.000891306
0.000891304
0.000891303
0.000891302
0.000891301
0.0008913
0.000891299
0.000891298
0.000891297
0.000891297
0.000891296
0.000891295
0.000891294
0.000891293
0.000891292
0.000891291
0.00089129
0.00089129
0.000891289
0.000891288
0.000891287
0.000891286
0.000891286
0.000891285
0.000891284
0.000891284
0.000891283
0.000891282
0.000891282
0.000891281
0.00089128
0.00089128
0.000891279
0.000891279
0.000891278
0.000891278
0.000891277
0.000891277
0.000891276
0.000891276
0.000891275
0.000891275
0.000891274
0.000891274
0.000891273
0.000891273
0.000891273
0.000891272
0.000891272
0.000891272
0.000891271
0.000891271
0.000891271
0.000891271
0.00089127
0.00089127
0.00089127
0.00089127
0.000891269
0.000891269
0.000891269
0.000891269
0.000891269
0.000891269
0.000891269
)
;

boundaryField
{
    fixedWall
    {
        type            calculated;
        value           uniform 0;
    }
    outlet
    {
        type            calculated;
        value           uniform 0.000891269;
    }
    defaultFaces
    {
        type            empty;
    }
}


// ************************************************************************* //
