/*--------------------------------*- C++ -*----------------------------------*\
| =========                 |                                                 |
| \\      /  F ield         | OpenFOAM: The Open Source CFD Toolbox           |
|  \\    /   O peration     | Version:  2406                                  |
|   \\  /    A nd           | Website:  www.openfoam.com                      |
|    \\/     M anipulation  |                                                 |
\*---------------------------------------------------------------------------*/
FoamFile
{
    version     2.0;
    format      ascii;
    arch        "LSB;label=32;scalar=64";
    class       surfaceScalarField;
    location    "13.4";
    object      phi;
}
// * * * * * * * * * * * * * * * * * * * * * * * * * * * * * * * * * * * * * //

dimensions      [1 0 -1 0 0 0 0];

oriented        oriented;

internalField   nonuniform List<scalar> 
999
(
-1.18079e-08
-4.01445e-08
-7.94159e-08
-1.26065e-07
-1.77759e-07
-2.32899e-07
-2.90363e-07
-3.49357e-07
-4.09307e-07
-4.6979e-07
-5.30486e-07
-5.9116e-07
-6.51636e-07
-7.11775e-07
-7.71478e-07
-8.30662e-07
-8.89272e-07
-9.47264e-07
-1.0046e-06
-1.06127e-06
-1.11724e-06
-1.1725e-06
-1.22705e-06
-1.28089e-06
-1.334e-06
-1.38641e-06
-1.43809e-06
-1.48907e-06
-1.53934e-06
-1.58891e-06
-1.63779e-06
-1.68598e-06
-1.73349e-06
-1.78033e-06
-1.8265e-06
-1.87202e-06
-1.91688e-06
-1.9611e-06
-2.00469e-06
-2.04765e-06
-2.08999e-06
-2.13172e-06
-2.17284e-06
-2.21337e-06
-2.2533e-06
-2.29265e-06
-2.33142e-06
-2.36961e-06
-2.40725e-06
-2.44432e-06
-2.48085e-06
-2.51682e-06
-2.55226e-06
-2.58716e-06
-2.62154e-06
-2.65539e-06
-2.68873e-06
-2.72155e-06
-2.75387e-06
-2.78569e-06
-2.81702e-06
-2.84786e-06
-2.87821e-06
-2.90808e-06
-2.93748e-06
-2.96641e-06
-2.99488e-06
-3.02288e-06
-3.05044e-06
-3.07754e-06
-3.1042e-06
-3.13042e-06
-3.1562e-06
-3.18155e-06
-3.20648e-06
-3.23098e-06
-3.25507e-06
-3.27874e-06
-3.30201e-06
-3.32487e-06
-3.34733e-06
-3.3694e-06
-3.39107e-06
-3.41237e-06
-3.43327e-06
-3.4538e-06
-3.47396e-06
-3.49375e-06
-3.51317e-06
-3.53223e-06
-3.55094e-06
-3.56929e-06
-3.5873e-06
-3.60496e-06
-3.62228e-06
-3.63927e-06
-3.65592e-06
-3.67225e-06
-3.68825e-06
-3.70394e-06
-3.71931e-06
-3.73437e-06
-3.74912e-06
-3.76357e-06
-3.77773e-06
-3.79158e-06
-3.80515e-06
-3.81843e-06
-3.83143e-06
-3.84415e-06
-3.85659e-06
-3.86877e-06
-3.88068e-06
-3.89232e-06
-3.90371e-06
-3.91484e-06
-3.92572e-06
-3.93636e-06
-3.94675e-06
-3.9569e-06
-3.96681e-06
-3.9765e-06
-3.98595e-06
-3.99519e-06
-4.0042e-06
-4.013e-06
-4.02158e-06
-4.02995e-06
-4.03812e-06
-4.04609e-06
-4.05386e-06
-4.06143e-06
-4.06881e-06
-4.076e-06
-4.08301e-06
-4.08984e-06
-4.09649e-06
-4.10297e-06
-4.10928e-06
-4.11542e-06
-4.1214e-06
-4.12721e-06
-4.13287e-06
-4.13838e-06
-4.14373e-06
-4.14894e-06
-4.154e-06
-4.15892e-06
-4.1637e-06
-4.16835e-06
-4.17286e-06
-4.17724e-06
-4.1815e-06
-4.18564e-06
-4.18965e-06
-4.19355e-06
-4.19733e-06
-4.20099e-06
-4.20455e-06
-4.208e-06
-4.21134e-06
-4.21459e-06
-4.21773e-06
-4.22077e-06
-4.22372e-06
-4.22658e-06
-4.22935e-06
-4.23203e-06
-4.23463e-06
-4.23714e-06
-4.23957e-06
-4.24193e-06
-4.24421e-06
-4.24639e-06
-4.24851e-06
-4.25055e-06
-4.25254e-06
-4.25447e-06
-4.25633e-06
-4.25813e-06
-4.25986e-06
-4.26154e-06
-4.26314e-06
-4.2647e-06
-4.2662e-06
-4.26764e-06
-4.26904e-06
-4.27039e-06
-4.2717e-06
-4.27295e-06
-4.27417e-06
-4.27534e-06
-4.27646e-06
-4.27755e-06
-4.27858e-06
-4.27958e-06
-4.28054e-06
-4.28147e-06
-4.28236e-06
-4.28322e-06
-4.28405e-06
-4.28484e-06
-4.28561e-06
-4.28634e-06
-4.28705e-06
-4.28772e-06
-4.28838e-06
-4.28901e-06
-4.28961e-06
-4.29019e-06
-4.29074e-06
-4.29127e-06
-4.29178e-06
-4.29227e-06
-4.29274e-06
-4.29319e-06
-4.29362e-06
-4.29403e-06
-4.29443e-06
-4.29481e-06
-4.29517e-06
-4.29552e-06
-4.29586e-06
-4.29618e-06
-4.29648e-06
-4.29677e-06
-4.29705e-06
-4.29732e-06
-4.29757e-06
-4.29781e-06
-4.29805e-06
-4.29827e-06
-4.29848e-06
-4.29868e-06
-4.29888e-06
-4.29906e-06
-4.29924e-06
-4.2994e-06
-4.29957e-06
-4.29972e-06
-4.29986e-06
-4.3e-06
-4.30014e-06
-4.30026e-06
-4.30038e-06
-4.3005e-06
-4.3006e-06
-4.3007e-06
-4.3008e-06
-4.3009e-06
-4.30098e-06
-4.30107e-06
-4.30115e-06
-4.30122e-06
-4.30129e-06
-4.30136e-06
-4.30142e-06
-4.30149e-06
-4.30154e-06
-4.3016e-06
-4.30165e-06
-4.3017e-06
-4.30174e-06
-4.30179e-06
-4.30183e-06
-4.30187e-06
-4.3019e-06
-4.30194e-06
-4.30197e-06
-4.302e-06
-4.30203e-06
-4.30205e-06
-4.30208e-06
-4.3021e-06
-4.30212e-06
-4.30214e-06
-4.30216e-06
-4.30218e-06
-4.30219e-06
-4.30221e-06
-4.30222e-06
-4.30224e-06
-4.30225e-06
-4.30226e-06
-4.30227e-06
-4.30228e-06
-4.30229e-06
-4.30229e-06
-4.3023e-06
-4.30231e-06
-4.30232e-06
-4.30232e-06
-4.30233e-06
-4.30233e-06
-4.30234e-06
-4.30234e-06
-4.30234e-06
-4.30234e-06
-4.30235e-06
-4.30235e-06
-4.30235e-06
-4.30235e-06
-4.30235e-06
-4.30235e-06
-4.30235e-06
-4.30235e-06
-4.30235e-06
-4.30235e-06
-4.30235e-06
-4.30235e-06
-4.30235e-06
-4.30235e-06
-4.30235e-06
-4.30234e-06
-4.30234e-06
-4.30234e-06
-4.30234e-06
-4.30234e-06
-4.30234e-06
-4.30234e-06
-4.30233e-06
-4.30233e-06
-4.30233e-06
-4.30233e-06
-4.30233e-06
-4.30232e-06
-4.30232e-06
-4.30232e-06
-4.30232e-06
-4.30231e-06
-4.30231e-06
-4.30231e-06
-4.30231e-06
-4.3023e-06
-4.3023e-06
-4.3023e-06
-4.3023e-06
-4.30229e-06
-4.30229e-06
-4.30229e-06
-4.30229e-06
-4.30229e-06
-4.30228e-06
-4.30228e-06
-4.30228e-06
-4.30228e-06
-4.30228e-06
-4.30228e-06
-4.30228e-06
-4.30228e-06
-4.30227e-06
-4.30227e-06
-4.30227e-06
-4.30227e-06
-4.30227e-06
-4.30227e-06
-4.30227e-06
-4.30227e-06
-4.30227e-06
-4.30226e-06
-4.30226e-06
-4.30226e-06
-4.30226e-06
-4.30226e-06
-4.30226e-06
-4.30226e-06
-4.30226e-06
-4.30226e-06
-4.30226e-06
-4.30226e-06
-4.30226e-06
-4.30226e-06
-4.30226e-06
-4.30226e-06
-4.30226e-06
-4.30226e-06
-4.30226e-06
-4.30226e-06
-4.30226e-06
-4.30225e-06
-4.30226e-06
-4.30226e-06
-4.30226e-06
-4.30226e-06
-4.30226e-06
-4.30226e-06
-4.30226e-06
-4.30226e-06
-4.30226e-06
-4.30226e-06
-4.30226e-06
-4.30226e-06
-4.30226e-06
-4.30226e-06
-4.30226e-06
-4.30226e-06
-4.30226e-06
-4.30226e-06
-4.30226e-06
-4.30226e-06
-4.30226e-06
-4.30226e-06
-4.30226e-06
-4.30226e-06
-4.30226e-06
-4.30226e-06
-4.30226e-06
-4.30226e-06
-4.30226e-06
-4.30226e-06
-4.30226e-06
-4.30226e-06
-4.30226e-06
-4.30226e-06
-4.30226e-06
-4.30226e-06
-4.30226e-06
-4.30226e-06
-4.30226e-06
-4.30227e-06
-4.30227e-06
-4.30227e-06
-4.30227e-06
-4.30227e-06
-4.30227e-06
-4.30227e-06
-4.30227e-06
-4.30227e-06
-4.30227e-06
-4.30227e-06
-4.30227e-06
-4.30227e-06
-4.30227e-06
-4.30227e-06
-4.30227e-06
-4.30227e-06
-4.30227e-06
-4.30227e-06
-4.30227e-06
-4.30227e-06
-4.30227e-06
-4.30227e-06
-4.30227e-06
-4.30227e-06
-4.30227e-06
-4.30227e-06
-4.30227e-06
-4.30227e-06
-4.30227e-06
-4.30227e-06
-4.30227e-06
-4.30227e-06
-4.30227e-06
-4.30227e-06
-4.30227e-06
-4.30227e-06
-4.30227e-06
-4.30227e-06
-4.30227e-06
-4.30227e-06
-4.30227e-06
-4.30227e-06
-4.30227e-06
-4.30227e-06
-4.30227e-06
-4.30227e-06
-4.30227e-06
-4.30227e-06
-4.30227e-06
-4.30227e-06
-4.30227e-06
-4.30227e-06
-4.30227e-06
-4.30227e-06
-4.30227e-06
-4.30227e-06
-4.30227e-06
-4.30227e-06
-4.30227e-06
-4.30227e-06
-4.30227e-06
-4.30227e-06
-4.30227e-06
-4.30227e-06
-4.30227e-06
-4.30227e-06
-4.30227e-06
-4.30227e-06
-4.30227e-06
-4.30227e-06
-4.30227e-06
-4.30227e-06
-4.30227e-06
-4.30227e-06
-4.30227e-06
-4.30227e-06
-4.30227e-06
-4.30227e-06
-4.30227e-06
-4.30227e-06
-4.30227e-06
-4.30227e-06
-4.30226e-06
-4.30226e-06
-4.30226e-06
-4.30226e-06
-4.30226e-06
-4.30226e-06
-4.30226e-06
-4.30226e-06
-4.30226e-06
-4.30226e-06
-4.30226e-06
-4.30226e-06
-4.30226e-06
-4.30226e-06
-4.30226e-06
-4.30226e-06
-4.30226e-06
-4.30226e-06
-4.30226e-06
-4.30225e-06
-4.30225e-06
-4.30225e-06
-4.30225e-06
-4.30225e-06
-4.30225e-06
-4.30225e-06
-4.30225e-06
-4.30225e-06
-4.30225e-06
-4.30225e-06
-4.30225e-06
-4.30225e-06
-4.30225e-06
-4.30225e-06
-4.30225e-06
-4.30225e-06
-4.30225e-06
-4.30225e-06
-4.30224e-06
-4.30225e-06
-4.30224e-06
-4.30224e-06
-4.30224e-06
-4.30224e-06
-4.30224e-06
-4.30224e-06
-4.30224e-06
-4.30224e-06
-4.30224e-06
-4.30224e-06
-4.30224e-06
-4.30224e-06
-4.30224e-06
-4.30224e-06
-4.30224e-06
-4.30224e-06
-4.30223e-06
-4.30223e-06
-4.30223e-06
-4.30223e-06
-4.30223e-06
-4.30223e-06
-4.30223e-06
-4.30223e-06
-4.30223e-06
-4.30223e-06
-4.30223e-06
-4.30223e-06
-4.30223e-06
-4.30223e-06
-4.30223e-06
-4.30223e-06
-4.30223e-06
-4.30223e-06
-4.30223e-06
-4.30223e-06
-4.30223e-06
-4.30222e-06
-4.30222e-06
-4.30222e-06
-4.30222e-06
-4.30222e-06
-4.30222e-06
-4.30222e-06
-4.30222e-06
-4.30222e-06
-4.30222e-06
-4.30222e-06
-4.30222e-06
-4.30222e-06
-4.30222e-06
-4.30222e-06
-4.30222e-06
-4.30222e-06
-4.30222e-06
-4.30222e-06
-4.30222e-06
-4.30222e-06
-4.30222e-06
-4.30222e-06
-4.30222e-06
-4.30222e-06
-4.30222e-06
-4.30222e-06
-4.30222e-06
-4.30222e-06
-4.30222e-06
-4.30222e-06
-4.30222e-06
-4.30222e-06
-4.30222e-06
-4.30222e-06
-4.30222e-06
-4.30222e-06
-4.30222e-06
-4.30222e-06
-4.30222e-06
-4.30222e-06
-4.30222e-06
-4.30222e-06
-4.30222e-06
-4.30222e-06
-4.30222e-06
-4.30222e-06
-4.30222e-06
-4.30222e-06
-4.30222e-06
-4.30222e-06
-4.30222e-06
-4.30222e-06
-4.30222e-06
-4.30222e-06
-4.30222e-06
-4.30222e-06
-4.30222e-06
-4.30222e-06
-4.30222e-06
-4.30222e-06
-4.30222e-06
-4.30222e-06
-4.30222e-06
-4.30222e-06
-4.30222e-06
-4.30222e-06
-4.30221e-06
-4.30221e-06
-4.30221e-06
-4.30221e-06
-4.30221e-06
-4.30221e-06
-4.30221e-06
-4.30221e-06
-4.30221e-06
-4.30221e-06
-4.30221e-06
-4.30221e-06
-4.30221e-06
-4.30221e-06
-4.30221e-06
-4.3022e-06
-4.30221e-06
-4.30221e-06
-4.3022e-06
-4.3022e-06
-4.3022e-06
-4.3022e-06
-4.3022e-06
-4.3022e-06
-4.3022e-06
-4.3022e-06
-4.3022e-06
-4.3022e-06
-4.3022e-06
-4.3022e-06
-4.3022e-06
-4.3022e-06
-4.30219e-06
-4.30219e-06
-4.30219e-06
-4.30219e-06
-4.30219e-06
-4.30219e-06
-4.30219e-06
-4.30219e-06
-4.30219e-06
-4.30219e-06
-4.30219e-06
-4.30219e-06
-4.30219e-06
-4.30219e-06
-4.30219e-06
-4.30219e-06
-4.30219e-06
-4.30219e-06
-4.30219e-06
-4.30219e-06
-4.30219e-06
-4.30219e-06
-4.30219e-06
-4.30219e-06
-4.30219e-06
-4.30219e-06
-4.30219e-06
-4.30219e-06
-4.30219e-06
-4.30219e-06
-4.3022e-06
-4.3022e-06
-4.3022e-06
-4.3022e-06
-4.3022e-06
-4.30221e-06
-4.30221e-06
-4.30221e-06
-4.30222e-06
-4.30222e-06
-4.30223e-06
-4.30223e-06
-4.30224e-06
-4.30224e-06
-4.30225e-06
-4.30225e-06
-4.30226e-06
-4.30227e-06
-4.30228e-06
-4.30229e-06
-4.3023e-06
-4.30231e-06
-4.30232e-06
-4.30233e-06
-4.30234e-06
-4.30236e-06
-4.30237e-06
-4.30239e-06
-4.3024e-06
-4.30242e-06
-4.30244e-06
-4.30246e-06
-4.30248e-06
-4.30251e-06
-4.30254e-06
-4.30257e-06
-4.3026e-06
-4.30263e-06
-4.30266e-06
-4.3027e-06
-4.30274e-06
-4.30278e-06
-4.30283e-06
-4.30287e-06
-4.30293e-06
-4.30298e-06
-4.30304e-06
-4.3031e-06
-4.30317e-06
-4.30324e-06
-4.30332e-06
-4.3034e-06
-4.30349e-06
-4.30358e-06
-4.30368e-06
-4.30379e-06
-4.3039e-06
-4.30402e-06
-4.30415e-06
-4.30429e-06
-4.30443e-06
-4.30459e-06
-4.30475e-06
-4.30493e-06
-4.30512e-06
-4.30532e-06
-4.30553e-06
-4.30575e-06
-4.30599e-06
-4.30625e-06
-4.30652e-06
-4.30681e-06
-4.30711e-06
-4.30744e-06
-4.30778e-06
-4.30814e-06
-4.30853e-06
-4.30894e-06
-4.30937e-06
-4.30984e-06
-4.31032e-06
-4.31084e-06
-4.31139e-06
-4.31197e-06
-4.31258e-06
-4.31323e-06
-4.31391e-06
-4.31464e-06
-4.31541e-06
-4.31621e-06
-4.31707e-06
-4.31797e-06
-4.31892e-06
-4.31993e-06
-4.32099e-06
-4.32211e-06
-4.32329e-06
-4.32453e-06
-4.32584e-06
-4.32722e-06
-4.32867e-06
-4.3302e-06
-4.33181e-06
-4.3335e-06
-4.33528e-06
-4.33715e-06
-4.33911e-06
-4.34118e-06
-4.34334e-06
-4.34562e-06
-4.34801e-06
-4.35052e-06
-4.35315e-06
-4.35591e-06
-4.3588e-06
-4.36183e-06
-4.365e-06
-4.36833e-06
-4.37181e-06
-4.37545e-06
-4.37926e-06
-4.38325e-06
-4.38742e-06
-4.39178e-06
-4.39633e-06
-4.40109e-06
-4.40605e-06
-4.41124e-06
-4.41665e-06
-4.4223e-06
-4.42819e-06
-4.43433e-06
-4.44073e-06
-4.4474e-06
-4.45435e-06
-4.46158e-06
-4.46911e-06
-4.47695e-06
-4.48511e-06
-4.49359e-06
-4.50241e-06
-4.51157e-06
-4.5211e-06
-4.53099e-06
-4.54127e-06
-4.55193e-06
-4.563e-06
-4.57449e-06
-4.5864e-06
-4.59875e-06
-4.61156e-06
-4.62482e-06
-4.63857e-06
-4.65281e-06
-4.66755e-06
-4.6828e-06
-4.69859e-06
-4.71492e-06
-4.73181e-06
-4.74927e-06
-4.76732e-06
-4.78596e-06
-4.80523e-06
-4.82512e-06
-4.84566e-06
-4.86686e-06
-4.88873e-06
-4.9113e-06
-4.93456e-06
-4.95856e-06
-4.98328e-06
-5.00877e-06
-5.03502e-06
-5.06206e-06
-5.0899e-06
-5.11856e-06
-5.14805e-06
-5.1784e-06
-5.20961e-06
-5.24171e-06
-5.27472e-06
-5.30864e-06
-5.3435e-06
-5.37932e-06
-5.41611e-06
-5.45389e-06
-5.49267e-06
-5.53249e-06
-5.57334e-06
-5.61526e-06
-5.65826e-06
-5.70236e-06
-5.74758e-06
-5.79393e-06
-5.84144e-06
-5.89012e-06
-5.93999e-06
-5.99108e-06
-6.04339e-06
-6.09696e-06
-6.1518e-06
-6.20792e-06
-6.26536e-06
-6.32412e-06
-6.38424e-06
-6.44573e-06
-6.5086e-06
-6.57289e-06
-6.63862e-06
-6.70579e-06
-6.77445e-06
-6.8446e-06
-6.91627e-06
-6.98949e-06
-7.06427e-06
-7.14064e-06
-7.21863e-06
-7.29825e-06
-7.37953e-06
-7.4625e-06
-7.54718e-06
-7.63359e-06
-7.72178e-06
-7.81175e-06
-7.90354e-06
-7.99718e-06
-8.09269e-06
-8.19011e-06
-8.28947e-06
-8.39079e-06
-8.49412e-06
-8.59948e-06
-8.70691e-06
-8.81645e-06
-8.92812e-06
-9.04197e-06
-9.15804e-06
-9.27636e-06
-9.39697e-06
-9.51992e-06
-9.64525e-06
-9.773e-06
-9.90321e-06
-1.00359e-05
-1.01712e-05
-1.03091e-05
-1.04497e-05
-1.0593e-05
-1.07392e-05
-1.08883e-05
-1.10395e-05
-1.11939e-05
-1.13516e-05
-1.15127e-05
-1.16772e-05
-1.1845e-05
-1.20162e-05
-1.21908e-05
-1.23689e-05
-1.25505e-05
-1.27357e-05
-1.29245e-05
-1.31171e-05
-1.33134e-05
-1.35135e-05
-1.37175e-05
-1.39253e-05
-1.41371e-05
-1.43526e-05
-1.45719e-05
-1.4795e-05
-1.50216e-05
-1.52515e-05
-1.54846e-05
-1.57205e-05
-1.59588e-05
-1.61989e-05
-1.64402e-05
-1.66819e-05
-1.6923e-05
-1.71622e-05
-1.73981e-05
-1.76289e-05
-1.78524e-05
-1.8066e-05
-1.82668e-05
-1.84511e-05
-1.86147e-05
-1.87527e-05
-1.88595e-05
-1.89288e-05
)
;

boundaryField
{
    fixedWall
    {
        type            calculated;
        value           uniform 0;
    }
    outlet
    {
        type            calculated;
        value           uniform -1.89536e-05;
    }
    defaultFaces
    {
        type            empty;
    }
}


// ************************************************************************* //
