/*--------------------------------*- C++ -*----------------------------------*\
| =========                 |                                                 |
| \\      /  F ield         | OpenFOAM: The Open Source CFD Toolbox           |
|  \\    /   O peration     | Version:  2406                                  |
|   \\  /    A nd           | Website:  www.openfoam.com                      |
|    \\/     M anipulation  |                                                 |
\*---------------------------------------------------------------------------*/
FoamFile
{
    version     2.0;
    format      ascii;
    arch        "LSB;label=32;scalar=64";
    class       volScalarField;
    location    "13.4";
    object      Qdot;
}
// * * * * * * * * * * * * * * * * * * * * * * * * * * * * * * * * * * * * * //

dimensions      [1 -1 -3 0 0 0 0];

internalField   nonuniform List<scalar> 
1000
(
-7.26648e-19
-1.33032e-17
-1.44938e-16
-1.07494e-15
3.80442e-09
1.14133e-08
4.21834e-08
1.35794e-07
3.83624e-07
9.29685e-07
2.08976e-06
4.35023e-06
8.47781e-06
1.55747e-05
2.72031e-05
4.54276e-05
7.28913e-05
0.000112853
0.000169232
0.000246569
0.000349996
0.000485179
0.000658189
0.000875425
0.00114342
0.00146873
0.00185773
0.00231648
0.00285053
0.0034648
0.00416342
0.00494961
0.00582561
0.00679256
0.00785052
0.00899838
0.0102339
0.0115537
0.0129535
0.0144278
0.0159704
0.0175742
0.0192314
0.0209339
0.0226728
0.0244391
0.0262237
0.0280174
0.029811
0.0315955
0.0333622
0.035103
0.0368099
0.0384756
0.0400934
0.0416572
0.0431616
0.0446017
0.0459736
0.0472738
0.0484995
0.0496487
0.05072
0.0517125
0.0526259
0.0534605
0.0542171
0.0548968
0.0555011
0.0560321
0.0564919
0.0568831
0.0572083
0.0574706
0.0576728
0.0578183
0.0579102
0.0579518
0.0579464
0.0578973
0.0578076
0.0576807
0.0575197
0.0573275
0.0571072
0.0568616
0.0565934
0.0563052
0.0559995
0.0556787
0.055345
0.0550005
0.0546472
0.0542868
0.0539212
0.0535518
0.0531802
0.0528078
0.0524356
0.052065
0.0516969
0.0513322
0.0509718
0.0506164
0.0502668
0.0499235
0.049587
0.0492578
0.0489363
0.0486227
0.0483175
0.0480207
0.0477327
0.0474534
0.0471831
0.0469218
0.0466695
0.0464263
0.046192
0.0459666
0.0457502
0.0455425
0.0453435
0.0451531
0.0449711
0.0447973
0.0446316
0.044474
0.044324
0.0441817
0.0440468
0.0439191
0.0437984
0.0436845
0.0435773
0.0434766
0.0433821
0.0432936
0.043211
0.0431341
0.0430626
0.0429965
0.0429354
0.0428793
0.0428279
0.0427811
0.0427387
0.0427006
0.0426665
0.0426363
0.0426098
0.042587
0.0425676
0.0425516
0.0425387
0.0425288
0.0425219
0.0425177
0.0425162
0.0425172
0.0425207
0.0425264
0.0425344
0.0425445
0.0425566
0.0425706
0.0425865
0.0426041
0.0426233
0.0426441
0.0426664
0.0426901
0.0427152
0.0427415
0.0427691
0.0427978
0.0428276
0.0428585
0.0428902
0.042923
0.0429567
0.0429911
0.0430263
0.0430623
0.0430991
0.0431364
0.0431743
0.043213
0.0432522
0.0432919
0.0433322
0.0433729
0.043414
0.0434556
0.0434975
0.0435397
0.0435825
0.0436256
0.043669
0.0437127
0.0437567
0.0438009
0.0438453
0.04389
0.043935
0.0439802
0.0440256
0.0440711
0.0441169
0.0441626
0.0442087
0.0442548
0.0443012
0.0443477
0.0443943
0.044441
0.0444879
0.0445348
0.0445819
0.0446291
0.0446764
0.0447238
0.0447711
0.0448186
0.044866
0.0449137
0.0449615
0.0450094
0.0450571
0.0451051
0.0451531
0.0452013
0.0452494
0.0452977
0.0453459
0.0453943
0.0454427
0.0454912
0.0455397
0.0455883
0.0456369
0.0456857
0.0457344
0.0457831
0.045832
0.0458809
0.0459297
0.0459787
0.0460278
0.046077
0.0461261
0.0461754
0.0462247
0.0462739
0.0463233
0.0463728
0.0464223
0.0464718
0.0465215
0.0465711
0.0466209
0.0466706
0.0467205
0.0467704
0.0468203
0.0468703
0.0469204
0.0469705
0.0470207
0.0470709
0.0471212
0.0471716
0.047222
0.0472725
0.0473231
0.0473737
0.0474244
0.0474751
0.0475259
0.0475768
0.0476277
0.0476787
0.0477297
0.0477808
0.047832
0.0478833
0.0479346
0.0479861
0.0480373
0.0480889
0.0481405
0.0481922
0.0482439
0.0482957
0.0483476
0.0483996
0.0484516
0.0485037
0.0485557
0.0486079
0.0486602
0.0487126
0.0487651
0.0488176
0.0488702
0.0489229
0.0489756
0.0490284
0.0490813
0.0491343
0.0491874
0.0492405
0.0492937
0.049347
0.0494004
0.0494538
0.0495074
0.0495608
0.0496145
0.0496683
0.0497221
0.0497761
0.0498301
0.0498842
0.0499383
0.0499926
0.0500469
0.0501013
0.0501558
0.0502104
0.050265
0.0503197
0.0503746
0.0504295
0.0504845
0.0505396
0.0505948
0.05065
0.0507054
0.0507608
0.0508163
0.050872
0.0509277
0.0509834
0.0510393
0.0510953
0.0511514
0.0512075
0.0512638
0.0513201
0.0513765
0.051433
0.0514897
0.0515464
0.0516032
0.0516601
0.0517171
0.0517742
0.0518311
0.0518884
0.0519458
0.0520033
0.0520608
0.0521184
0.0521762
0.052234
0.0522919
0.05235
0.0524081
0.0524663
0.0525246
0.052583
0.0526416
0.0527002
0.0527589
0.0528177
0.0528766
0.0529356
0.0529948
0.053054
0.0531131
0.0531725
0.0532321
0.0532917
0.0533514
0.0534113
0.0534712
0.0535312
0.0535913
0.0536515
0.0537119
0.0537723
0.0538328
0.0538935
0.0539542
0.0540151
0.0540758
0.0541369
0.0541981
0.0542594
0.0543207
0.0543822
0.0544438
0.0545055
0.0545673
0.0546291
0.0546911
0.0547532
0.0548154
0.0548778
0.0549402
0.0550027
0.0550653
0.0551281
0.0551909
0.0552539
0.0553169
0.0553801
0.0554434
0.0555068
0.0555703
0.0556339
0.0556976
0.0557614
0.0558254
0.0558894
0.0559536
0.0560178
0.0560822
0.0561467
0.0562113
0.056276
0.0563408
0.0564058
0.0564708
0.056536
0.0566013
0.0566667
0.0567319
0.0567976
0.0568634
0.0569292
0.0569952
0.0570613
0.0571275
0.0571938
0.0572602
0.0573268
0.0573932
0.05746
0.0575269
0.0575939
0.057661
0.0577282
0.0577956
0.057863
0.0579306
0.0579983
0.0580661
0.0581341
0.0582021
0.0582701
0.0583384
0.0584068
0.0584754
0.058544
0.0586128
0.0586817
0.0587507
0.0588199
0.0588891
0.0589585
0.059028
0.0590976
0.0591674
0.0592372
0.0593072
0.0593774
0.0594476
0.059518
0.0595885
0.0596591
0.0597298
0.0598007
0.0598717
0.0599428
0.060014
0.0600854
0.0601569
0.0602285
0.0603003
0.0603722
0.0604442
0.0605163
0.0605886
0.060661
0.0607336
0.0608062
0.060879
0.0609519
0.061025
0.0610982
0.0611715
0.0612449
0.0613185
0.0613922
0.0614661
0.0615401
0.0616142
0.0616884
0.0617628
0.0618374
0.061912
0.0619868
0.0620617
0.0621368
0.062212
0.0622873
0.0623628
0.0624384
0.0625141
0.06259
0.062666
0.0627421
0.0628184
0.0628948
0.0629714
0.0630481
0.063125
0.063202
0.0632791
0.0633564
0.0634338
0.0635114
0.0635891
0.063667
0.063745
0.0638231
0.0639014
0.0639796
0.0640582
0.0641369
0.0642158
0.0642948
0.0643739
0.0644532
0.0645327
0.0646123
0.064692
0.0647719
0.0648517
0.0649319
0.0650122
0.0650927
0.0651733
0.0652541
0.065335
0.065416
0.0654972
0.0655786
0.0656601
0.0657418
0.0658236
0.0659056
0.0659878
0.0660697
0.0661521
0.0662347
0.0663175
0.0664004
0.0664834
0.0665666
0.0666499
0.0667334
0.0668171
0.0669009
0.0669849
0.067069
0.0671533
0.0672377
0.0673224
0.0674071
0.067492
0.0675771
0.0676624
0.0677478
0.0678334
0.0679191
0.068005
0.068091
0.0681773
0.0682636
0.0683502
0.0684369
0.0685238
0.0686108
0.0686981
0.0687854
0.068873
0.0689607
0.0690486
0.0691366
0.0692249
0.0693133
0.0694018
0.0694906
0.0695795
0.0696685
0.0697578
0.0698472
0.0699368
0.0700266
0.0701165
0.0702066
0.0702969
0.0703874
0.070478
0.0705688
0.0706598
0.070751
0.0708424
0.0709339
0.0710256
0.0711175
0.0712095
0.0713018
0.0713942
0.0714868
0.0715796
0.0716726
0.0717657
0.071859
0.0719525
0.0720462
0.0721401
0.0722342
0.0723284
0.0724228
0.0725174
0.0726122
0.0727072
0.0728024
0.0728978
0.0729933
0.0730891
0.073185
0.0732811
0.0733774
0.0734739
0.0735706
0.0736674
0.0737645
0.0738618
0.0739592
0.0740569
0.0741547
0.0742528
0.074351
0.0744494
0.074548
0.0746468
0.0747458
0.074845
0.0749444
0.075044
0.0751438
0.0752438
0.075344
0.0754444
0.075545
0.0756458
0.0757467
0.0758479
0.0759493
0.0760509
0.0761527
0.0762547
0.0763569
0.0764593
0.0765619
0.0766647
0.0767677
0.0768709
0.0769744
0.077078
0.0771819
0.077286
0.0773903
0.0774949
0.0775991
0.0777035
0.0778086
0.0779139
0.0780194
0.0781251
0.078231
0.0783372
0.0784435
0.0785501
0.0786569
0.0787638
0.078871
0.0789785
0.0790861
0.079194
0.0793021
0.0794104
0.0795189
0.0796276
0.0797361
0.0798452
0.0799546
0.0800642
0.080174
0.080284
0.0803943
0.0805047
0.0806154
0.0807264
0.0808375
0.0809489
0.0810605
0.0811724
0.0812845
0.0813968
0.0815093
0.0816221
0.0817351
0.0818483
0.0819618
0.0820755
0.0821894
0.0823036
0.082418
0.0825326
0.0826475
0.0827626
0.082878
0.0829936
0.0831094
0.0832255
0.0833418
0.0834583
0.0835751
0.0836921
0.0838094
0.0839269
0.0840446
0.0841626
0.0842808
0.0843993
0.084518
0.084637
0.0847561
0.0848756
0.0849952
0.0851152
0.0852353
0.0853557
0.0854763
0.0855972
0.0857184
0.0858397
0.0859613
0.0860832
0.0862053
0.0863276
0.0864502
0.086573
0.0866961
0.0868195
0.0869431
0.0870669
0.087191
0.0873153
0.0874399
0.0875648
0.08769
0.0878154
0.087941
0.088067
0.0881933
0.0883198
0.0884467
0.0885738
0.0887013
0.0888291
0.0889572
0.0890857
0.0892145
0.0893437
0.0894733
0.0896033
0.0897338
0.0898647
0.089996
0.0901279
0.0902603
0.0903932
0.0905268
0.0906609
0.0907958
0.0909313
0.0910676
0.0912046
0.0913426
0.0914814
0.0916212
0.0917621
0.0919041
0.0920473
0.0921917
0.0923375
0.0924848
0.0926337
0.0927842
0.0929366
0.0930909
0.0932472
0.0934058
0.0935668
0.0937303
0.0938966
0.0940658
0.0942381
0.0944138
0.0945931
0.0947762
0.0949634
0.0951549
0.0953512
0.0955524
0.095759
0.0959713
0.0961896
0.0964143
0.096646
0.0968849
0.0971316
0.0973866
0.0976504
0.0979235
0.0982065
0.0985
0.0988047
0.0991211
0.09945
0.0997922
0.100148
0.100519
0.100906
0.101309
0.101729
0.102168
0.102626
0.103104
0.103604
0.104126
0.104672
0.105243
0.10584
0.106464
0.107116
0.107799
0.108513
0.109259
0.11004
0.110856
0.11171
0.112602
0.113534
0.114508
0.115526
0.116589
0.117698
0.118856
0.120063
0.121322
0.122634
0.124
0.125422
0.126902
0.128441
0.130039
0.131699
0.133421
0.135206
0.137055
0.138968
0.140945
0.142988
0.145094
0.147264
0.149498
0.151793
0.154147
0.15656
0.159028
0.161547
0.164115
0.166726
0.169376
0.172059
0.174767
0.177494
0.18023
0.182968
0.185696
0.188403
0.191077
0.193705
0.196271
0.198761
0.201159
0.203446
0.205603
0.207613
0.209453
0.211103
0.212541
0.213745
0.214692
0.215359
0.215724
0.215765
0.215459
0.214785
0.213725
0.212261
0.210375
0.208056
0.205292
0.202075
0.198401
0.19427
0.189686
0.184657
0.179197
0.173324
0.167061
0.160436
0.153483
0.14624
0.138748
0.131055
0.123211
0.115269
0.107284
0.0993124
0.0914116
0.0836378
0.0760457
0.0686875
0.0616117
0.0548622
0.0484775
0.0424898
0.0369247
0.0318066
0.0271743
0.0229506
0.0191778
0.0158451
0.0129356
0.0104268
0.00829167
0.00649952
0.0050172
0.00381011
0.00284332
0.00208254
0.00149507
0.0010505
0.000721278
0.000483073
0.000314983
0.000199526
0.000122497
7.27007e-05
4.15901e-05
2.28609e-05
1.20307e-05
6.03826e-06
2.8776e-06
1.29472e-06
5.47604e-07
2.16767e-07
7.90483e-08
2.68961e-08
8.38836e-09
2.59111e-09
7.13329e-10
8.57456e-11
-9.97286e-14
-7.2525e-18
-8.94336e-19
2.27314e-10
-6.987e-21
-3.4935e-21
0
)
;

boundaryField
{
    fixedWall
    {
        type            calculated;
        value           uniform 0;
    }
    outlet
    {
        type            calculated;
        value           uniform 0;
    }
    defaultFaces
    {
        type            empty;
    }
}


// ************************************************************************* //
