/*--------------------------------*- C++ -*----------------------------------*\
| =========                 |                                                 |
| \\      /  F ield         | OpenFOAM: The Open Source CFD Toolbox           |
|  \\    /   O peration     | Version:  2406                                  |
|   \\  /    A nd           | Website:  www.openfoam.com                      |
|    \\/     M anipulation  |                                                 |
\*---------------------------------------------------------------------------*/
FoamFile
{
    version     2.0;
    format      ascii;
    arch        "LSB;label=32;scalar=64";
    class       surfaceScalarField;
    location    "12.3";
    object      phi;
}
// * * * * * * * * * * * * * * * * * * * * * * * * * * * * * * * * * * * * * //

dimensions      [1 0 -1 0 0 0 0];

oriented        oriented;

internalField   nonuniform List<scalar> 
999
(
-1.34495e-08
-4.54237e-08
-8.9448e-08
-1.41481e-07
-1.98883e-07
-2.59895e-07
-3.23288e-07
-3.8819e-07
-4.53994e-07
-5.20241e-07
-5.86599e-07
-6.5282e-07
-7.18722e-07
-7.84171e-07
-8.49054e-07
-9.13307e-07
-9.76859e-07
-1.03968e-06
-1.10172e-06
-1.16298e-06
-1.22343e-06
-1.28307e-06
-1.34189e-06
-1.39989e-06
-1.45707e-06
-1.51343e-06
-1.56899e-06
-1.62374e-06
-1.67769e-06
-1.73085e-06
-1.78324e-06
-1.83484e-06
-1.88569e-06
-1.93578e-06
-1.98512e-06
-2.03372e-06
-2.0816e-06
-2.12875e-06
-2.17519e-06
-2.22094e-06
-2.26598e-06
-2.31035e-06
-2.35404e-06
-2.39706e-06
-2.43941e-06
-2.48112e-06
-2.52218e-06
-2.56261e-06
-2.60241e-06
-2.64158e-06
-2.68014e-06
-2.71809e-06
-2.75544e-06
-2.7922e-06
-2.82837e-06
-2.86396e-06
-2.89898e-06
-2.93342e-06
-2.96731e-06
-3.00064e-06
-3.03342e-06
-3.06566e-06
-3.09737e-06
-3.12854e-06
-3.15918e-06
-3.18931e-06
-3.21893e-06
-3.24803e-06
-3.27664e-06
-3.30474e-06
-3.33236e-06
-3.35949e-06
-3.38614e-06
-3.41231e-06
-3.43802e-06
-3.46326e-06
-3.48804e-06
-3.51237e-06
-3.53624e-06
-3.55968e-06
-3.58268e-06
-3.60524e-06
-3.62737e-06
-3.64909e-06
-3.67038e-06
-3.69126e-06
-3.71173e-06
-3.7318e-06
-3.75148e-06
-3.77076e-06
-3.78966e-06
-3.80817e-06
-3.8263e-06
-3.84406e-06
-3.86145e-06
-3.87848e-06
-3.89515e-06
-3.91146e-06
-3.92743e-06
-3.94306e-06
-3.95834e-06
-3.9733e-06
-3.98792e-06
-4.00222e-06
-4.0162e-06
-4.02986e-06
-4.04322e-06
-4.05627e-06
-4.06902e-06
-4.08147e-06
-4.09363e-06
-4.10551e-06
-4.1171e-06
-4.12842e-06
-4.13946e-06
-4.15024e-06
-4.16075e-06
-4.171e-06
-4.181e-06
-4.19075e-06
-4.20025e-06
-4.20951e-06
-4.21854e-06
-4.22733e-06
-4.23589e-06
-4.24423e-06
-4.25236e-06
-4.26026e-06
-4.26795e-06
-4.27544e-06
-4.28272e-06
-4.28981e-06
-4.2967e-06
-4.3034e-06
-4.30991e-06
-4.31624e-06
-4.32239e-06
-4.32837e-06
-4.33417e-06
-4.3398e-06
-4.34528e-06
-4.35059e-06
-4.35574e-06
-4.36075e-06
-4.3656e-06
-4.3703e-06
-4.37487e-06
-4.37929e-06
-4.38358e-06
-4.38774e-06
-4.39176e-06
-4.39566e-06
-4.39944e-06
-4.4031e-06
-4.40664e-06
-4.41007e-06
-4.41338e-06
-4.41659e-06
-4.41969e-06
-4.42269e-06
-4.42559e-06
-4.4284e-06
-4.43111e-06
-4.43373e-06
-4.43626e-06
-4.43871e-06
-4.44106e-06
-4.44333e-06
-4.44552e-06
-4.44763e-06
-4.44967e-06
-4.45164e-06
-4.45355e-06
-4.45537e-06
-4.45714e-06
-4.45884e-06
-4.46047e-06
-4.46204e-06
-4.46356e-06
-4.46503e-06
-4.46645e-06
-4.46781e-06
-4.46913e-06
-4.47039e-06
-4.4716e-06
-4.47276e-06
-4.47388e-06
-4.47496e-06
-4.47599e-06
-4.47698e-06
-4.47792e-06
-4.47883e-06
-4.4797e-06
-4.48055e-06
-4.48136e-06
-4.48214e-06
-4.48288e-06
-4.4836e-06
-4.48428e-06
-4.48494e-06
-4.48556e-06
-4.48617e-06
-4.48675e-06
-4.4873e-06
-4.48783e-06
-4.48834e-06
-4.48883e-06
-4.48929e-06
-4.48974e-06
-4.49016e-06
-4.49057e-06
-4.49096e-06
-4.49133e-06
-4.49168e-06
-4.49202e-06
-4.49234e-06
-4.49265e-06
-4.49295e-06
-4.49323e-06
-4.49349e-06
-4.49375e-06
-4.49399e-06
-4.49422e-06
-4.49445e-06
-4.49466e-06
-4.49486e-06
-4.49505e-06
-4.49523e-06
-4.4954e-06
-4.49556e-06
-4.49572e-06
-4.49587e-06
-4.49601e-06
-4.49615e-06
-4.49627e-06
-4.49639e-06
-4.49651e-06
-4.49662e-06
-4.49672e-06
-4.49682e-06
-4.49691e-06
-4.497e-06
-4.49708e-06
-4.49716e-06
-4.49723e-06
-4.4973e-06
-4.49737e-06
-4.49743e-06
-4.49749e-06
-4.49755e-06
-4.4976e-06
-4.49765e-06
-4.4977e-06
-4.49774e-06
-4.49778e-06
-4.49782e-06
-4.49786e-06
-4.49789e-06
-4.49792e-06
-4.49795e-06
-4.49798e-06
-4.498e-06
-4.49803e-06
-4.49805e-06
-4.49807e-06
-4.49809e-06
-4.49811e-06
-4.49813e-06
-4.49814e-06
-4.49815e-06
-4.49817e-06
-4.49818e-06
-4.49819e-06
-4.4982e-06
-4.49821e-06
-4.49822e-06
-4.49822e-06
-4.49823e-06
-4.49824e-06
-4.49824e-06
-4.49825e-06
-4.49825e-06
-4.49825e-06
-4.49826e-06
-4.49826e-06
-4.49826e-06
-4.49826e-06
-4.49826e-06
-4.49826e-06
-4.49826e-06
-4.49826e-06
-4.49826e-06
-4.49826e-06
-4.49826e-06
-4.49826e-06
-4.49826e-06
-4.49826e-06
-4.49825e-06
-4.49825e-06
-4.49825e-06
-4.49825e-06
-4.49824e-06
-4.49824e-06
-4.49824e-06
-4.49824e-06
-4.49823e-06
-4.49823e-06
-4.49823e-06
-4.49822e-06
-4.49822e-06
-4.49822e-06
-4.49821e-06
-4.49821e-06
-4.4982e-06
-4.4982e-06
-4.4982e-06
-4.49819e-06
-4.49819e-06
-4.49818e-06
-4.49818e-06
-4.49818e-06
-4.49817e-06
-4.49817e-06
-4.49817e-06
-4.49816e-06
-4.49816e-06
-4.49816e-06
-4.49815e-06
-4.49815e-06
-4.49815e-06
-4.49814e-06
-4.49814e-06
-4.49814e-06
-4.49813e-06
-4.49813e-06
-4.49813e-06
-4.49812e-06
-4.49812e-06
-4.49812e-06
-4.49812e-06
-4.49811e-06
-4.49811e-06
-4.49811e-06
-4.49811e-06
-4.49811e-06
-4.4981e-06
-4.4981e-06
-4.4981e-06
-4.4981e-06
-4.4981e-06
-4.4981e-06
-4.49809e-06
-4.49809e-06
-4.49809e-06
-4.49809e-06
-4.49809e-06
-4.49809e-06
-4.49809e-06
-4.49809e-06
-4.49808e-06
-4.49808e-06
-4.49808e-06
-4.49808e-06
-4.49808e-06
-4.49808e-06
-4.49808e-06
-4.49808e-06
-4.49808e-06
-4.49808e-06
-4.49808e-06
-4.49808e-06
-4.49808e-06
-4.49808e-06
-4.49808e-06
-4.49808e-06
-4.49808e-06
-4.49808e-06
-4.49808e-06
-4.49808e-06
-4.49808e-06
-4.49808e-06
-4.49808e-06
-4.49808e-06
-4.49808e-06
-4.49808e-06
-4.49808e-06
-4.49808e-06
-4.49808e-06
-4.49808e-06
-4.49808e-06
-4.49808e-06
-4.49808e-06
-4.49808e-06
-4.49808e-06
-4.49808e-06
-4.49808e-06
-4.49808e-06
-4.49808e-06
-4.49808e-06
-4.49808e-06
-4.49808e-06
-4.49809e-06
-4.49809e-06
-4.49809e-06
-4.49809e-06
-4.49809e-06
-4.49809e-06
-4.49809e-06
-4.49809e-06
-4.49809e-06
-4.49809e-06
-4.49809e-06
-4.49809e-06
-4.49809e-06
-4.49809e-06
-4.49809e-06
-4.49809e-06
-4.49809e-06
-4.49809e-06
-4.4981e-06
-4.4981e-06
-4.4981e-06
-4.4981e-06
-4.4981e-06
-4.4981e-06
-4.4981e-06
-4.4981e-06
-4.4981e-06
-4.4981e-06
-4.4981e-06
-4.4981e-06
-4.4981e-06
-4.4981e-06
-4.4981e-06
-4.4981e-06
-4.4981e-06
-4.4981e-06
-4.4981e-06
-4.4981e-06
-4.4981e-06
-4.4981e-06
-4.4981e-06
-4.4981e-06
-4.4981e-06
-4.4981e-06
-4.4981e-06
-4.4981e-06
-4.4981e-06
-4.4981e-06
-4.4981e-06
-4.4981e-06
-4.4981e-06
-4.4981e-06
-4.4981e-06
-4.4981e-06
-4.4981e-06
-4.4981e-06
-4.4981e-06
-4.4981e-06
-4.4981e-06
-4.4981e-06
-4.4981e-06
-4.4981e-06
-4.4981e-06
-4.4981e-06
-4.4981e-06
-4.4981e-06
-4.4981e-06
-4.4981e-06
-4.4981e-06
-4.4981e-06
-4.4981e-06
-4.4981e-06
-4.4981e-06
-4.4981e-06
-4.4981e-06
-4.4981e-06
-4.4981e-06
-4.4981e-06
-4.4981e-06
-4.4981e-06
-4.4981e-06
-4.4981e-06
-4.4981e-06
-4.4981e-06
-4.4981e-06
-4.4981e-06
-4.4981e-06
-4.4981e-06
-4.4981e-06
-4.4981e-06
-4.4981e-06
-4.4981e-06
-4.4981e-06
-4.4981e-06
-4.4981e-06
-4.4981e-06
-4.4981e-06
-4.4981e-06
-4.49809e-06
-4.49809e-06
-4.49809e-06
-4.49809e-06
-4.49809e-06
-4.49809e-06
-4.49809e-06
-4.49809e-06
-4.49809e-06
-4.49809e-06
-4.49809e-06
-4.49809e-06
-4.49809e-06
-4.49809e-06
-4.49809e-06
-4.49809e-06
-4.49809e-06
-4.49809e-06
-4.49809e-06
-4.49809e-06
-4.49808e-06
-4.49808e-06
-4.49808e-06
-4.49808e-06
-4.49808e-06
-4.49808e-06
-4.49808e-06
-4.49808e-06
-4.49808e-06
-4.49808e-06
-4.49808e-06
-4.49808e-06
-4.49808e-06
-4.49808e-06
-4.49808e-06
-4.49808e-06
-4.49808e-06
-4.49808e-06
-4.49808e-06
-4.49808e-06
-4.49807e-06
-4.49807e-06
-4.49807e-06
-4.49807e-06
-4.49807e-06
-4.49807e-06
-4.49807e-06
-4.49807e-06
-4.49807e-06
-4.49807e-06
-4.49807e-06
-4.49807e-06
-4.49807e-06
-4.49806e-06
-4.49806e-06
-4.49806e-06
-4.49806e-06
-4.49806e-06
-4.49806e-06
-4.49806e-06
-4.49806e-06
-4.49806e-06
-4.49806e-06
-4.49806e-06
-4.49806e-06
-4.49806e-06
-4.49806e-06
-4.49805e-06
-4.49806e-06
-4.49805e-06
-4.49805e-06
-4.49805e-06
-4.49805e-06
-4.49805e-06
-4.49805e-06
-4.49805e-06
-4.49805e-06
-4.49805e-06
-4.49805e-06
-4.49805e-06
-4.49805e-06
-4.49805e-06
-4.49805e-06
-4.49805e-06
-4.49805e-06
-4.49805e-06
-4.49805e-06
-4.49805e-06
-4.49805e-06
-4.49805e-06
-4.49805e-06
-4.49805e-06
-4.49804e-06
-4.49805e-06
-4.49805e-06
-4.49805e-06
-4.49805e-06
-4.49805e-06
-4.49804e-06
-4.49805e-06
-4.49805e-06
-4.49805e-06
-4.49805e-06
-4.49805e-06
-4.49805e-06
-4.49805e-06
-4.49805e-06
-4.49805e-06
-4.49805e-06
-4.49805e-06
-4.49805e-06
-4.49805e-06
-4.49805e-06
-4.49805e-06
-4.49805e-06
-4.49805e-06
-4.49805e-06
-4.49805e-06
-4.49805e-06
-4.49805e-06
-4.49805e-06
-4.49805e-06
-4.49805e-06
-4.49805e-06
-4.49805e-06
-4.49805e-06
-4.49805e-06
-4.49805e-06
-4.49805e-06
-4.49805e-06
-4.49805e-06
-4.49805e-06
-4.49805e-06
-4.49805e-06
-4.49805e-06
-4.49805e-06
-4.49805e-06
-4.49805e-06
-4.49805e-06
-4.49805e-06
-4.49805e-06
-4.49805e-06
-4.49805e-06
-4.49805e-06
-4.49805e-06
-4.49805e-06
-4.49805e-06
-4.49805e-06
-4.49805e-06
-4.49805e-06
-4.49805e-06
-4.49805e-06
-4.49805e-06
-4.49804e-06
-4.49804e-06
-4.49804e-06
-4.49804e-06
-4.49804e-06
-4.49804e-06
-4.49804e-06
-4.49804e-06
-4.49804e-06
-4.49804e-06
-4.49803e-06
-4.49803e-06
-4.49803e-06
-4.49803e-06
-4.49803e-06
-4.49803e-06
-4.49803e-06
-4.49803e-06
-4.49803e-06
-4.49802e-06
-4.49802e-06
-4.49802e-06
-4.49802e-06
-4.49802e-06
-4.49802e-06
-4.49802e-06
-4.49801e-06
-4.49801e-06
-4.49801e-06
-4.49801e-06
-4.49801e-06
-4.49801e-06
-4.49801e-06
-4.498e-06
-4.498e-06
-4.498e-06
-4.498e-06
-4.498e-06
-4.498e-06
-4.49799e-06
-4.49799e-06
-4.49799e-06
-4.49799e-06
-4.49799e-06
-4.49799e-06
-4.49799e-06
-4.49799e-06
-4.49799e-06
-4.49798e-06
-4.49798e-06
-4.49798e-06
-4.49798e-06
-4.49798e-06
-4.49798e-06
-4.49798e-06
-4.49798e-06
-4.49798e-06
-4.49798e-06
-4.49798e-06
-4.49798e-06
-4.49798e-06
-4.49798e-06
-4.49798e-06
-4.49798e-06
-4.49798e-06
-4.49798e-06
-4.49798e-06
-4.49798e-06
-4.49798e-06
-4.49798e-06
-4.49799e-06
-4.49799e-06
-4.49799e-06
-4.49799e-06
-4.49799e-06
-4.49799e-06
-4.498e-06
-4.498e-06
-4.498e-06
-4.49801e-06
-4.49801e-06
-4.49801e-06
-4.49802e-06
-4.49802e-06
-4.49803e-06
-4.49803e-06
-4.49804e-06
-4.49804e-06
-4.49805e-06
-4.49805e-06
-4.49806e-06
-4.49807e-06
-4.49808e-06
-4.49809e-06
-4.4981e-06
-4.49811e-06
-4.49812e-06
-4.49813e-06
-4.49814e-06
-4.49815e-06
-4.49817e-06
-4.49818e-06
-4.4982e-06
-4.49822e-06
-4.49824e-06
-4.49826e-06
-4.49828e-06
-4.49831e-06
-4.49833e-06
-4.49836e-06
-4.49839e-06
-4.49842e-06
-4.49845e-06
-4.49849e-06
-4.49853e-06
-4.49857e-06
-4.49862e-06
-4.49867e-06
-4.49872e-06
-4.49878e-06
-4.49884e-06
-4.4989e-06
-4.49897e-06
-4.49905e-06
-4.49913e-06
-4.49921e-06
-4.49931e-06
-4.49941e-06
-4.49951e-06
-4.49963e-06
-4.49975e-06
-4.49988e-06
-4.50002e-06
-4.50017e-06
-4.50033e-06
-4.5005e-06
-4.50069e-06
-4.50089e-06
-4.5011e-06
-4.50133e-06
-4.50157e-06
-4.50183e-06
-4.5021e-06
-4.5024e-06
-4.50272e-06
-4.50305e-06
-4.50341e-06
-4.5038e-06
-4.50421e-06
-4.50464e-06
-4.50511e-06
-4.5056e-06
-4.50613e-06
-4.5067e-06
-4.50729e-06
-4.50793e-06
-4.50861e-06
-4.50933e-06
-4.51009e-06
-4.5109e-06
-4.51177e-06
-4.51268e-06
-4.51365e-06
-4.51468e-06
-4.51578e-06
-4.51694e-06
-4.51817e-06
-4.51947e-06
-4.52085e-06
-4.52231e-06
-4.52385e-06
-4.52549e-06
-4.52721e-06
-4.52904e-06
-4.53097e-06
-4.53301e-06
-4.53516e-06
-4.53743e-06
-4.53983e-06
-4.54235e-06
-4.54502e-06
-4.54783e-06
-4.55079e-06
-4.5539e-06
-4.55718e-06
-4.56063e-06
-4.56426e-06
-4.56808e-06
-4.5721e-06
-4.57632e-06
-4.58075e-06
-4.5854e-06
-4.59029e-06
-4.59541e-06
-4.60078e-06
-4.60642e-06
-4.61232e-06
-4.61851e-06
-4.62499e-06
-4.63177e-06
-4.63887e-06
-4.6463e-06
-4.65406e-06
-4.66218e-06
-4.67066e-06
-4.67952e-06
-4.68878e-06
-4.69843e-06
-4.70851e-06
-4.71903e-06
-4.72999e-06
-4.74141e-06
-4.75332e-06
-4.76572e-06
-4.77863e-06
-4.79207e-06
-4.80605e-06
-4.8206e-06
-4.83572e-06
-4.85144e-06
-4.86777e-06
-4.88473e-06
-4.90234e-06
-4.92062e-06
-4.93959e-06
-4.95926e-06
-4.97967e-06
-5.00081e-06
-5.02272e-06
-5.04542e-06
-5.06893e-06
-5.09326e-06
-5.11844e-06
-5.14449e-06
-5.17143e-06
-5.19929e-06
-5.22807e-06
-5.25782e-06
-5.28854e-06
-5.32026e-06
-5.35301e-06
-5.38681e-06
-5.42168e-06
-5.45763e-06
-5.49471e-06
-5.53293e-06
-5.57231e-06
-5.61288e-06
-5.65466e-06
-5.69768e-06
-5.74196e-06
-5.78753e-06
-5.83441e-06
-5.88263e-06
-5.9322e-06
-5.98317e-06
-6.03555e-06
-6.08936e-06
-6.14464e-06
-6.20142e-06
-6.2597e-06
-6.31953e-06
-6.38094e-06
-6.44394e-06
-6.50857e-06
-6.57484e-06
-6.6428e-06
-6.71247e-06
-6.78387e-06
-6.85704e-06
-6.93201e-06
-7.0088e-06
-7.08743e-06
-7.16796e-06
-7.2504e-06
-7.33478e-06
-7.42114e-06
-7.50951e-06
-7.59992e-06
-7.69241e-06
-7.787e-06
-7.88373e-06
-7.98265e-06
-8.08377e-06
-8.18715e-06
-8.29281e-06
-8.40081e-06
-8.51116e-06
-8.62393e-06
-8.73915e-06
-8.85685e-06
-8.9771e-06
-9.09993e-06
-9.22539e-06
-9.35353e-06
-9.4844e-06
-9.61806e-06
-9.75456e-06
-9.89395e-06
-1.00363e-05
-1.01817e-05
-1.03301e-05
-1.04817e-05
-1.06364e-05
-1.07944e-05
-1.09556e-05
-1.11201e-05
-1.12878e-05
-1.14586e-05
-1.16321e-05
-1.18055e-05
-1.19926e-05
-1.21822e-05
-1.23749e-05
-1.25711e-05
-1.27713e-05
-1.29755e-05
-1.31841e-05
-1.33971e-05
-1.36147e-05
-1.38371e-05
-1.40642e-05
-1.42962e-05
-1.45332e-05
-1.47751e-05
-1.5022e-05
-1.52739e-05
-1.55306e-05
-1.57921e-05
-1.60583e-05
-1.63287e-05
-1.66031e-05
-1.6881e-05
-1.71617e-05
-1.74445e-05
-1.77282e-05
-1.80116e-05
-1.8293e-05
-1.85704e-05
-1.88413e-05
-1.91024e-05
-1.93501e-05
-1.95798e-05
-1.97858e-05
-1.99616e-05
-2.00993e-05
-2.01898e-05
)
;

boundaryField
{
    fixedWall
    {
        type            calculated;
        value           uniform 0;
    }
    outlet
    {
        type            calculated;
        value           uniform -2.02226e-05;
    }
    defaultFaces
    {
        type            empty;
    }
}


// ************************************************************************* //
