/*--------------------------------*- C++ -*----------------------------------*\
| =========                 |                                                 |
| \\      /  F ield         | OpenFOAM: The Open Source CFD Toolbox           |
|  \\    /   O peration     | Version:  2406                                  |
|   \\  /    A nd           | Website:  www.openfoam.com                      |
|    \\/     M anipulation  |                                                 |
\*---------------------------------------------------------------------------*/
FoamFile
{
    version     2.0;
    format      ascii;
    arch        "LSB;label=32;scalar=64";
    class       volScalarField;
    location    "12.3";
    object      T;
}
// * * * * * * * * * * * * * * * * * * * * * * * * * * * * * * * * * * * * * //

dimensions      [0 0 0 1 0 0 0];

internalField   nonuniform List<scalar> 
1000
(
304.552
325.993
345.965
364.688
382.328
399.019
414.866
429.958
444.366
458.153
471.371
484.064
496.273
508.033
519.372
530.319
540.896
551.127
561.03
570.623
579.921
588.94
597.692
606.19
614.445
622.467
630.267
637.852
645.231
652.412
659.402
666.208
672.837
679.293
685.584
691.713
697.687
703.509
709.186
714.72
720.115
725.377
730.508
735.512
740.393
745.154
749.797
754.326
758.744
763.054
767.258
771.359
775.359
779.261
783.067
786.779
790.4
793.932
797.377
800.736
804.012
807.207
810.322
813.36
816.321
819.209
822.023
824.767
827.442
830.048
832.588
835.063
837.475
839.825
842.114
844.344
846.516
848.631
850.691
852.696
854.649
856.55
858.4
860.201
861.953
863.658
865.317
866.93
868.5
870.026
871.51
872.953
874.356
875.72
877.045
878.333
879.585
880.8
881.981
883.128
884.242
885.323
886.373
887.391
888.38
889.34
890.27
891.173
892.049
892.899
893.722
894.52
895.294
896.044
896.771
897.475
898.157
898.817
899.457
900.076
900.675
901.255
901.816
902.36
902.885
903.393
903.884
904.36
904.819
905.263
905.692
906.106
906.506
906.893
907.266
907.627
907.975
908.311
908.635
908.947
909.249
909.54
909.82
910.091
910.351
910.602
910.844
911.077
911.302
911.518
911.726
911.927
912.119
912.305
912.483
912.655
912.82
912.979
913.131
913.278
913.419
913.554
913.684
913.809
913.929
914.044
914.154
914.26
914.362
914.459
914.553
914.642
914.728
914.81
914.889
914.964
915.037
915.106
915.172
915.235
915.296
915.354
915.41
915.463
915.514
915.562
915.609
915.653
915.695
915.736
915.774
915.811
915.846
915.88
915.912
915.942
915.971
915.999
916.025
916.05
916.074
916.097
916.119
916.139
916.159
916.177
916.195
916.212
916.228
916.243
916.258
916.271
916.284
916.297
916.308
916.319
916.33
916.34
916.349
916.358
916.366
916.374
916.382
916.389
916.396
916.402
916.408
916.414
916.419
916.424
916.429
916.433
916.437
916.441
916.445
916.449
916.452
916.455
916.458
916.46
916.463
916.465
916.468
916.47
916.472
916.473
916.475
916.477
916.478
916.479
916.481
916.482
916.483
916.484
916.485
916.486
916.486
916.487
916.488
916.488
916.489
916.489
916.49
916.49
916.491
916.491
916.491
916.492
916.492
916.492
916.492
916.492
916.493
916.493
916.493
916.493
916.493
916.493
916.493
916.493
916.493
916.493
916.493
916.493
916.494
916.494
916.494
916.494
916.494
916.494
916.494
916.494
916.494
916.494
916.494
916.494
916.494
916.494
916.494
916.494
916.494
916.494
916.494
916.494
916.494
916.494
916.494
916.494
916.494
916.494
916.494
916.495
916.495
916.495
916.495
916.495
916.495
916.495
916.495
916.495
916.496
916.496
916.496
916.496
916.496
916.496
916.496
916.496
916.497
916.497
916.497
916.497
916.497
916.497
916.498
916.498
916.498
916.498
916.498
916.499
916.499
916.499
916.499
916.499
916.499
916.5
916.5
916.5
916.5
916.5
916.501
916.501
916.501
916.501
916.501
916.502
916.502
916.502
916.502
916.502
916.503
916.503
916.503
916.503
916.503
916.504
916.504
916.504
916.504
916.504
916.505
916.505
916.505
916.505
916.505
916.506
916.506
916.506
916.506
916.506
916.506
916.507
916.507
916.507
916.507
916.507
916.507
916.508
916.508
916.508
916.508
916.508
916.508
916.508
916.509
916.509
916.509
916.509
916.509
916.509
916.509
916.51
916.51
916.51
916.51
916.51
916.51
916.51
916.51
916.51
916.511
916.511
916.511
916.511
916.511
916.511
916.511
916.511
916.511
916.511
916.511
916.512
916.512
916.512
916.512
916.512
916.512
916.512
916.512
916.512
916.512
916.512
916.512
916.512
916.513
916.513
916.513
916.513
916.513
916.513
916.513
916.513
916.513
916.513
916.513
916.513
916.513
916.513
916.513
916.513
916.513
916.513
916.514
916.514
916.514
916.514
916.514
916.514
916.514
916.514
916.514
916.514
916.514
916.514
916.514
916.514
916.514
916.514
916.514
916.514
916.514
916.514
916.514
916.514
916.514
916.514
916.514
916.514
916.514
916.515
916.515
916.515
916.515
916.515
916.515
916.515
916.515
916.515
916.515
916.515
916.515
916.515
916.515
916.515
916.515
916.515
916.515
916.515
916.515
916.515
916.515
916.515
916.515
916.515
916.515
916.515
916.515
916.515
916.515
916.515
916.515
916.515
916.515
916.515
916.515
916.515
916.515
916.515
916.515
916.515
916.515
916.516
916.516
916.516
916.516
916.516
916.516
916.516
916.516
916.516
916.516
916.516
916.516
916.516
916.516
916.516
916.516
916.516
916.516
916.516
916.516
916.516
916.516
916.516
916.516
916.516
916.516
916.516
916.516
916.516
916.516
916.516
916.516
916.516
916.516
916.516
916.516
916.516
916.516
916.516
916.517
916.517
916.517
916.517
916.517
916.517
916.517
916.517
916.517
916.517
916.517
916.517
916.517
916.517
916.517
916.517
916.517
916.517
916.517
916.517
916.517
916.517
916.517
916.517
916.517
916.517
916.517
916.517
916.517
916.517
916.518
916.518
916.518
916.518
916.518
916.518
916.518
916.518
916.518
916.518
916.518
916.518
916.518
916.518
916.518
916.518
916.518
916.518
916.518
916.518
916.518
916.518
916.518
916.518
916.518
916.518
916.518
916.518
916.518
916.518
916.518
916.518
916.518
916.518
916.518
916.518
916.518
916.518
916.518
916.518
916.518
916.518
916.518
916.518
916.518
916.518
916.518
916.518
916.518
916.518
916.518
916.518
916.518
916.518
916.518
916.518
916.518
916.518
916.518
916.518
916.518
916.518
916.518
916.518
916.518
916.518
916.518
916.518
916.518
916.518
916.518
916.518
916.518
916.518
916.518
916.518
916.518
916.518
916.518
916.518
916.518
916.518
916.518
916.518
916.518
916.518
916.518
916.518
916.518
916.518
916.518
916.518
916.518
916.518
916.518
916.518
916.518
916.518
916.518
916.518
916.518
916.518
916.518
916.518
916.518
916.518
916.519
916.519
916.519
916.519
916.519
916.519
916.519
916.519
916.519
916.519
916.519
916.519
916.519
916.519
916.519
916.519
916.519
916.519
916.519
916.519
916.519
916.519
916.519
916.519
916.519
916.52
916.52
916.52
916.52
916.52
916.52
916.52
916.52
916.52
916.52
916.52
916.52
916.52
916.52
916.519
916.519
916.519
916.519
916.519
916.519
916.519
916.519
916.519
916.519
916.519
916.519
916.518
916.518
916.518
916.518
916.518
916.517
916.517
916.517
916.517
916.516
916.516
916.515
916.515
916.515
916.514
916.514
916.513
916.512
916.512
916.511
916.51
916.509
916.509
916.508
916.507
916.505
916.504
916.503
916.502
916.5
916.499
916.497
916.495
916.493
916.491
916.489
916.486
916.484
916.481
916.478
916.475
916.471
916.467
916.464
916.459
916.455
916.45
916.445
916.439
916.433
916.427
916.42
916.413
916.405
916.397
916.388
916.378
916.368
916.357
916.346
916.333
916.32
916.306
916.291
916.275
916.258
916.24
916.221
916.201
916.179
916.156
916.131
916.105
916.078
916.048
916.017
915.984
915.949
915.911
915.872
915.83
915.786
915.739
915.689
915.637
915.581
915.522
915.46
915.395
915.326
915.253
915.176
915.094
915.009
914.918
914.823
914.723
914.617
914.506
914.389
914.267
914.137
914.002
913.859
913.71
913.553
913.388
913.215
913.034
912.844
912.645
912.437
912.219
911.991
911.753
911.503
911.243
910.971
910.686
910.389
910.08
909.756
909.419
909.068
908.702
908.321
907.924
907.511
907.081
906.633
906.168
905.685
905.183
904.661
904.119
903.557
902.974
902.369
901.742
901.091
900.417
899.719
898.996
898.248
897.474
896.672
895.844
894.987
894.101
893.186
892.24
891.263
890.255
889.214
888.14
887.032
885.888
884.709
883.494
882.241
880.95
879.62
878.25
876.839
875.386
873.89
872.35
870.766
869.135
867.457
865.732
863.957
862.131
860.254
858.324
856.34
854.3
852.203
850.048
847.832
845.556
843.216
840.811
838.34
835.801
833.191
830.509
827.753
824.921
822.01
819.017
815.942
812.781
809.531
806.189
802.754
799.221
795.588
791.851
788.006
784.051
779.982
775.794
771.483
767.045
762.476
757.771
752.924
747.932
742.788
737.487
732.024
726.393
720.587
714.601
708.486
702.124
695.557
688.78
681.785
674.565
667.111
659.418
651.476
643.277
634.813
626.077
617.06
607.754
598.152
588.248
578.034
567.506
556.658
545.488
533.992
522.17
510.024
497.557
484.776
471.689
458.309
444.652
430.738
416.593
402.246
387.732
373.094
358.38
343.647
328.958
314.387
300.017
)
;

boundaryField
{
    fixedWall
    {
        type            fixedValue;
        value           uniform 293;
    }
    outlet
    {
        type            inletOutlet;
        inletValue      uniform 293;
        value           uniform 293;
    }
    defaultFaces
    {
        type            empty;
    }
}


// ************************************************************************* //
