/*--------------------------------*- C++ -*----------------------------------*\
| =========                 |                                                 |
| \\      /  F ield         | OpenFOAM: The Open Source CFD Toolbox           |
|  \\    /   O peration     | Version:  2406                                  |
|   \\  /    A nd           | Website:  www.openfoam.com                      |
|    \\/     M anipulation  |                                                 |
\*---------------------------------------------------------------------------*/
FoamFile
{
    version     2.0;
    format      ascii;
    arch        "LSB;label=32;scalar=64";
    class       volVectorField;
    location    "12.3";
    object      U;
}
// * * * * * * * * * * * * * * * * * * * * * * * * * * * * * * * * * * * * * //

dimensions      [0 1 -1 0 0 0 0];

internalField   nonuniform List<vector> 
1000
(
(-7.10901e-07 0 0)
(-3.41261e-06 0 0)
(-8.79736e-06 0 0)
(-1.62647e-05 0 0)
(-2.53561e-05 0 0)
(-3.57925e-05 0 0)
(-4.73787e-05 0 0)
(-5.99525e-05 0 0)
(-7.33779e-05 0 0)
(-8.75384e-05 0 0)
(-0.000102338 0 0)
(-0.000117693 0 0)
(-0.000133531 0 0)
(-0.00014979 0 0)
(-0.000166416 0 0)
(-0.000183359 0 0)
(-0.000200579 0 0)
(-0.000218036 0 0)
(-0.000235696 0 0)
(-0.000253528 0 0)
(-0.000271504 0 0)
(-0.0002896 0 0)
(-0.000307792 0 0)
(-0.000326058 0 0)
(-0.000344381 0 0)
(-0.00036274 0 0)
(-0.000381122 0 0)
(-0.000399509 0 0)
(-0.000417888 0 0)
(-0.000436246 0 0)
(-0.000454571 0 0)
(-0.000472851 0 0)
(-0.000491077 0 0)
(-0.000509237 0 0)
(-0.000527323 0 0)
(-0.000545327 0 0)
(-0.000563239 0 0)
(-0.000581053 0 0)
(-0.00059876 0 0)
(-0.000616355 0 0)
(-0.000633833 0 0)
(-0.000651185 0 0)
(-0.000668407 0 0)
(-0.000685495 0 0)
(-0.000702443 0 0)
(-0.000719246 0 0)
(-0.000735901 0 0)
(-0.000752402 0 0)
(-0.000768748 0 0)
(-0.000784934 0 0)
(-0.000800957 0 0)
(-0.000816813 0 0)
(-0.000832501 0 0)
(-0.000848018 0 0)
(-0.000863361 0 0)
(-0.000878528 0 0)
(-0.000893517 0 0)
(-0.000908327 0 0)
(-0.000922955 0 0)
(-0.0009374 0 0)
(-0.000951661 0 0)
(-0.000965738 0 0)
(-0.000979628 0 0)
(-0.000993331 0 0)
(-0.00100685 0 0)
(-0.00102017 0 0)
(-0.00103331 0 0)
(-0.00104626 0 0)
(-0.00105902 0 0)
(-0.00107159 0 0)
(-0.00108396 0 0)
(-0.00109615 0 0)
(-0.00110815 0 0)
(-0.00111997 0 0)
(-0.00113159 0 0)
(-0.00114302 0 0)
(-0.00115427 0 0)
(-0.00116532 0 0)
(-0.0011762 0 0)
(-0.00118688 0 0)
(-0.00119738 0 0)
(-0.0012077 0 0)
(-0.00121783 0 0)
(-0.00122779 0 0)
(-0.00123756 0 0)
(-0.00124715 0 0)
(-0.00125656 0 0)
(-0.0012658 0 0)
(-0.00127486 0 0)
(-0.00128375 0 0)
(-0.00129247 0 0)
(-0.00130101 0 0)
(-0.00130939 0 0)
(-0.00131759 0 0)
(-0.00132564 0 0)
(-0.00133351 0 0)
(-0.00134123 0 0)
(-0.00134878 0 0)
(-0.00135617 0 0)
(-0.00136341 0 0)
(-0.00137049 0 0)
(-0.00137741 0 0)
(-0.00138419 0 0)
(-0.00139081 0 0)
(-0.00139729 0 0)
(-0.00140362 0 0)
(-0.00140981 0 0)
(-0.00141585 0 0)
(-0.00142176 0 0)
(-0.00142753 0 0)
(-0.00143316 0 0)
(-0.00143866 0 0)
(-0.00144402 0 0)
(-0.00144926 0 0)
(-0.00145436 0 0)
(-0.00145935 0 0)
(-0.00146421 0 0)
(-0.00146894 0 0)
(-0.00147356 0 0)
(-0.00147806 0 0)
(-0.00148245 0 0)
(-0.00148672 0 0)
(-0.00149088 0 0)
(-0.00149493 0 0)
(-0.00149887 0 0)
(-0.00150271 0 0)
(-0.00150645 0 0)
(-0.00151008 0 0)
(-0.00151362 0 0)
(-0.00151705 0 0)
(-0.0015204 0 0)
(-0.00152365 0 0)
(-0.0015268 0 0)
(-0.00152987 0 0)
(-0.00153285 0 0)
(-0.00153575 0 0)
(-0.00153856 0 0)
(-0.00154129 0 0)
(-0.00154394 0 0)
(-0.00154651 0 0)
(-0.001549 0 0)
(-0.00155142 0 0)
(-0.00155376 0 0)
(-0.00155604 0 0)
(-0.00155824 0 0)
(-0.00156038 0 0)
(-0.00156245 0 0)
(-0.00156446 0 0)
(-0.0015664 0 0)
(-0.00156828 0 0)
(-0.0015701 0 0)
(-0.00157187 0 0)
(-0.00157357 0 0)
(-0.00157522 0 0)
(-0.00157682 0 0)
(-0.00157836 0 0)
(-0.00157985 0 0)
(-0.0015813 0 0)
(-0.00158269 0 0)
(-0.00158404 0 0)
(-0.00158534 0 0)
(-0.0015866 0 0)
(-0.00158781 0 0)
(-0.00158898 0 0)
(-0.00159012 0 0)
(-0.00159121 0 0)
(-0.00159226 0 0)
(-0.00159327 0 0)
(-0.00159425 0 0)
(-0.00159519 0 0)
(-0.0015961 0 0)
(-0.00159697 0 0)
(-0.00159782 0 0)
(-0.00159863 0 0)
(-0.00159941 0 0)
(-0.00160017 0 0)
(-0.00160089 0 0)
(-0.00160159 0 0)
(-0.00160226 0 0)
(-0.0016029 0 0)
(-0.00160353 0 0)
(-0.00160413 0 0)
(-0.00160471 0 0)
(-0.00160526 0 0)
(-0.0016058 0 0)
(-0.00160631 0 0)
(-0.0016068 0 0)
(-0.00160727 0 0)
(-0.00160773 0 0)
(-0.00160816 0 0)
(-0.00160857 0 0)
(-0.00160897 0 0)
(-0.00160935 0 0)
(-0.00160972 0 0)
(-0.00161007 0 0)
(-0.00161041 0 0)
(-0.00161074 0 0)
(-0.00161105 0 0)
(-0.00161134 0 0)
(-0.00161163 0 0)
(-0.0016119 0 0)
(-0.00161216 0 0)
(-0.00161241 0 0)
(-0.00161265 0 0)
(-0.00161288 0 0)
(-0.0016131 0 0)
(-0.00161331 0 0)
(-0.00161351 0 0)
(-0.0016137 0 0)
(-0.00161389 0 0)
(-0.00161406 0 0)
(-0.00161423 0 0)
(-0.00161439 0 0)
(-0.00161454 0 0)
(-0.00161469 0 0)
(-0.00161482 0 0)
(-0.00161496 0 0)
(-0.00161508 0 0)
(-0.0016152 0 0)
(-0.00161532 0 0)
(-0.00161542 0 0)
(-0.00161553 0 0)
(-0.00161563 0 0)
(-0.00161572 0 0)
(-0.00161581 0 0)
(-0.00161589 0 0)
(-0.00161598 0 0)
(-0.00161605 0 0)
(-0.00161612 0 0)
(-0.00161619 0 0)
(-0.00161626 0 0)
(-0.00161632 0 0)
(-0.00161638 0 0)
(-0.00161644 0 0)
(-0.00161649 0 0)
(-0.00161654 0 0)
(-0.00161659 0 0)
(-0.00161664 0 0)
(-0.00161668 0 0)
(-0.00161672 0 0)
(-0.00161676 0 0)
(-0.0016168 0 0)
(-0.00161683 0 0)
(-0.00161686 0 0)
(-0.00161689 0 0)
(-0.00161692 0 0)
(-0.00161695 0 0)
(-0.00161698 0 0)
(-0.001617 0 0)
(-0.00161702 0 0)
(-0.00161705 0 0)
(-0.00161707 0 0)
(-0.00161709 0 0)
(-0.0016171 0 0)
(-0.00161712 0 0)
(-0.00161714 0 0)
(-0.00161715 0 0)
(-0.00161716 0 0)
(-0.00161718 0 0)
(-0.00161719 0 0)
(-0.0016172 0 0)
(-0.00161721 0 0)
(-0.00161722 0 0)
(-0.00161723 0 0)
(-0.00161724 0 0)
(-0.00161725 0 0)
(-0.00161725 0 0)
(-0.00161726 0 0)
(-0.00161727 0 0)
(-0.00161727 0 0)
(-0.00161728 0 0)
(-0.00161728 0 0)
(-0.00161729 0 0)
(-0.00161729 0 0)
(-0.00161729 0 0)
(-0.0016173 0 0)
(-0.0016173 0 0)
(-0.0016173 0 0)
(-0.00161731 0 0)
(-0.00161731 0 0)
(-0.00161731 0 0)
(-0.00161731 0 0)
(-0.00161731 0 0)
(-0.00161731 0 0)
(-0.00161731 0 0)
(-0.00161732 0 0)
(-0.00161732 0 0)
(-0.00161732 0 0)
(-0.00161732 0 0)
(-0.00161732 0 0)
(-0.00161732 0 0)
(-0.00161732 0 0)
(-0.00161731 0 0)
(-0.00161732 0 0)
(-0.00161732 0 0)
(-0.00161731 0 0)
(-0.00161732 0 0)
(-0.00161731 0 0)
(-0.00161731 0 0)
(-0.00161731 0 0)
(-0.00161731 0 0)
(-0.00161731 0 0)
(-0.00161731 0 0)
(-0.00161731 0 0)
(-0.00161731 0 0)
(-0.00161731 0 0)
(-0.0016173 0 0)
(-0.00161731 0 0)
(-0.0016173 0 0)
(-0.0016173 0 0)
(-0.0016173 0 0)
(-0.0016173 0 0)
(-0.0016173 0 0)
(-0.0016173 0 0)
(-0.00161729 0 0)
(-0.0016173 0 0)
(-0.00161729 0 0)
(-0.00161729 0 0)
(-0.00161729 0 0)
(-0.00161729 0 0)
(-0.00161729 0 0)
(-0.00161729 0 0)
(-0.00161729 0 0)
(-0.00161728 0 0)
(-0.00161729 0 0)
(-0.00161728 0 0)
(-0.00161728 0 0)
(-0.00161728 0 0)
(-0.00161728 0 0)
(-0.00161728 0 0)
(-0.00161728 0 0)
(-0.00161728 0 0)
(-0.00161728 0 0)
(-0.00161728 0 0)
(-0.00161727 0 0)
(-0.00161728 0 0)
(-0.00161727 0 0)
(-0.00161727 0 0)
(-0.00161727 0 0)
(-0.00161727 0 0)
(-0.00161727 0 0)
(-0.00161727 0 0)
(-0.00161727 0 0)
(-0.00161727 0 0)
(-0.00161727 0 0)
(-0.00161727 0 0)
(-0.00161727 0 0)
(-0.00161727 0 0)
(-0.00161727 0 0)
(-0.00161727 0 0)
(-0.00161727 0 0)
(-0.00161727 0 0)
(-0.00161727 0 0)
(-0.00161727 0 0)
(-0.00161727 0 0)
(-0.00161727 0 0)
(-0.00161727 0 0)
(-0.00161727 0 0)
(-0.00161727 0 0)
(-0.00161727 0 0)
(-0.00161727 0 0)
(-0.00161727 0 0)
(-0.00161727 0 0)
(-0.00161727 0 0)
(-0.00161727 0 0)
(-0.00161727 0 0)
(-0.00161727 0 0)
(-0.00161727 0 0)
(-0.00161727 0 0)
(-0.00161727 0 0)
(-0.00161727 0 0)
(-0.00161727 0 0)
(-0.00161727 0 0)
(-0.00161727 0 0)
(-0.00161727 0 0)
(-0.00161727 0 0)
(-0.00161727 0 0)
(-0.00161727 0 0)
(-0.00161727 0 0)
(-0.00161727 0 0)
(-0.00161727 0 0)
(-0.00161727 0 0)
(-0.00161727 0 0)
(-0.00161727 0 0)
(-0.00161727 0 0)
(-0.00161727 0 0)
(-0.00161727 0 0)
(-0.00161728 0 0)
(-0.00161727 0 0)
(-0.00161728 0 0)
(-0.00161728 0 0)
(-0.00161727 0 0)
(-0.00161728 0 0)
(-0.00161728 0 0)
(-0.00161728 0 0)
(-0.00161728 0 0)
(-0.00161728 0 0)
(-0.00161728 0 0)
(-0.00161728 0 0)
(-0.00161728 0 0)
(-0.00161728 0 0)
(-0.00161728 0 0)
(-0.00161728 0 0)
(-0.00161728 0 0)
(-0.00161728 0 0)
(-0.00161728 0 0)
(-0.00161728 0 0)
(-0.00161728 0 0)
(-0.00161728 0 0)
(-0.00161728 0 0)
(-0.00161728 0 0)
(-0.00161728 0 0)
(-0.00161728 0 0)
(-0.00161729 0 0)
(-0.00161728 0 0)
(-0.00161729 0 0)
(-0.00161729 0 0)
(-0.00161729 0 0)
(-0.00161729 0 0)
(-0.00161729 0 0)
(-0.00161729 0 0)
(-0.00161729 0 0)
(-0.00161729 0 0)
(-0.00161729 0 0)
(-0.00161729 0 0)
(-0.00161729 0 0)
(-0.00161729 0 0)
(-0.00161729 0 0)
(-0.00161729 0 0)
(-0.00161729 0 0)
(-0.00161729 0 0)
(-0.00161729 0 0)
(-0.00161729 0 0)
(-0.00161729 0 0)
(-0.00161729 0 0)
(-0.00161729 0 0)
(-0.00161729 0 0)
(-0.00161729 0 0)
(-0.00161729 0 0)
(-0.00161729 0 0)
(-0.00161729 0 0)
(-0.00161729 0 0)
(-0.00161729 0 0)
(-0.00161729 0 0)
(-0.00161729 0 0)
(-0.00161729 0 0)
(-0.00161729 0 0)
(-0.00161729 0 0)
(-0.00161729 0 0)
(-0.00161729 0 0)
(-0.00161729 0 0)
(-0.00161729 0 0)
(-0.00161729 0 0)
(-0.00161729 0 0)
(-0.00161729 0 0)
(-0.00161729 0 0)
(-0.00161729 0 0)
(-0.00161729 0 0)
(-0.00161729 0 0)
(-0.00161729 0 0)
(-0.00161729 0 0)
(-0.00161729 0 0)
(-0.00161729 0 0)
(-0.00161729 0 0)
(-0.00161729 0 0)
(-0.00161729 0 0)
(-0.00161729 0 0)
(-0.0016173 0 0)
(-0.00161729 0 0)
(-0.0016173 0 0)
(-0.00161729 0 0)
(-0.00161729 0 0)
(-0.00161729 0 0)
(-0.00161729 0 0)
(-0.0016173 0 0)
(-0.00161729 0 0)
(-0.00161729 0 0)
(-0.00161729 0 0)
(-0.00161729 0 0)
(-0.0016173 0 0)
(-0.00161729 0 0)
(-0.00161729 0 0)
(-0.00161729 0 0)
(-0.0016173 0 0)
(-0.00161729 0 0)
(-0.00161729 0 0)
(-0.00161729 0 0)
(-0.00161729 0 0)
(-0.0016173 0 0)
(-0.00161729 0 0)
(-0.00161729 0 0)
(-0.00161729 0 0)
(-0.00161729 0 0)
(-0.00161729 0 0)
(-0.00161729 0 0)
(-0.00161729 0 0)
(-0.00161729 0 0)
(-0.00161729 0 0)
(-0.00161729 0 0)
(-0.00161729 0 0)
(-0.00161729 0 0)
(-0.00161729 0 0)
(-0.00161729 0 0)
(-0.00161729 0 0)
(-0.00161729 0 0)
(-0.00161729 0 0)
(-0.00161729 0 0)
(-0.00161729 0 0)
(-0.00161729 0 0)
(-0.00161729 0 0)
(-0.00161729 0 0)
(-0.00161729 0 0)
(-0.00161729 0 0)
(-0.00161729 0 0)
(-0.00161729 0 0)
(-0.00161729 0 0)
(-0.00161729 0 0)
(-0.00161729 0 0)
(-0.00161729 0 0)
(-0.00161729 0 0)
(-0.00161729 0 0)
(-0.00161729 0 0)
(-0.00161729 0 0)
(-0.00161729 0 0)
(-0.00161729 0 0)
(-0.00161729 0 0)
(-0.00161729 0 0)
(-0.00161729 0 0)
(-0.00161729 0 0)
(-0.00161729 0 0)
(-0.00161729 0 0)
(-0.00161729 0 0)
(-0.00161729 0 0)
(-0.00161729 0 0)
(-0.00161729 0 0)
(-0.00161729 0 0)
(-0.00161729 0 0)
(-0.00161729 0 0)
(-0.00161729 0 0)
(-0.00161729 0 0)
(-0.00161729 0 0)
(-0.00161729 0 0)
(-0.00161729 0 0)
(-0.00161729 0 0)
(-0.00161729 0 0)
(-0.00161729 0 0)
(-0.00161729 0 0)
(-0.00161728 0 0)
(-0.00161729 0 0)
(-0.00161729 0 0)
(-0.00161728 0 0)
(-0.00161729 0 0)
(-0.00161729 0 0)
(-0.00161728 0 0)
(-0.00161729 0 0)
(-0.00161728 0 0)
(-0.00161728 0 0)
(-0.00161728 0 0)
(-0.00161728 0 0)
(-0.00161728 0 0)
(-0.00161728 0 0)
(-0.00161728 0 0)
(-0.00161728 0 0)
(-0.00161728 0 0)
(-0.00161728 0 0)
(-0.00161728 0 0)
(-0.00161728 0 0)
(-0.00161728 0 0)
(-0.00161728 0 0)
(-0.00161728 0 0)
(-0.00161728 0 0)
(-0.00161728 0 0)
(-0.00161728 0 0)
(-0.00161728 0 0)
(-0.00161728 0 0)
(-0.00161728 0 0)
(-0.00161728 0 0)
(-0.00161728 0 0)
(-0.00161728 0 0)
(-0.00161728 0 0)
(-0.00161728 0 0)
(-0.00161728 0 0)
(-0.00161728 0 0)
(-0.00161728 0 0)
(-0.00161728 0 0)
(-0.00161728 0 0)
(-0.00161728 0 0)
(-0.00161728 0 0)
(-0.00161728 0 0)
(-0.00161728 0 0)
(-0.00161728 0 0)
(-0.00161728 0 0)
(-0.00161728 0 0)
(-0.00161728 0 0)
(-0.00161728 0 0)
(-0.00161728 0 0)
(-0.00161728 0 0)
(-0.00161728 0 0)
(-0.00161728 0 0)
(-0.00161728 0 0)
(-0.00161728 0 0)
(-0.00161728 0 0)
(-0.00161728 0 0)
(-0.00161728 0 0)
(-0.00161728 0 0)
(-0.00161728 0 0)
(-0.00161728 0 0)
(-0.00161728 0 0)
(-0.00161728 0 0)
(-0.00161728 0 0)
(-0.00161728 0 0)
(-0.00161728 0 0)
(-0.00161728 0 0)
(-0.00161728 0 0)
(-0.00161728 0 0)
(-0.00161728 0 0)
(-0.00161728 0 0)
(-0.00161728 0 0)
(-0.00161728 0 0)
(-0.00161728 0 0)
(-0.00161728 0 0)
(-0.00161728 0 0)
(-0.00161728 0 0)
(-0.00161728 0 0)
(-0.00161728 0 0)
(-0.00161728 0 0)
(-0.00161728 0 0)
(-0.00161728 0 0)
(-0.00161728 0 0)
(-0.00161728 0 0)
(-0.00161728 0 0)
(-0.00161728 0 0)
(-0.00161728 0 0)
(-0.00161728 0 0)
(-0.00161728 0 0)
(-0.00161728 0 0)
(-0.00161729 0 0)
(-0.00161728 0 0)
(-0.00161728 0 0)
(-0.00161728 0 0)
(-0.00161728 0 0)
(-0.00161728 0 0)
(-0.00161728 0 0)
(-0.00161728 0 0)
(-0.00161728 0 0)
(-0.00161728 0 0)
(-0.00161728 0 0)
(-0.00161728 0 0)
(-0.00161728 0 0)
(-0.00161728 0 0)
(-0.00161728 0 0)
(-0.00161728 0 0)
(-0.00161728 0 0)
(-0.00161728 0 0)
(-0.00161728 0 0)
(-0.00161728 0 0)
(-0.00161728 0 0)
(-0.00161728 0 0)
(-0.00161728 0 0)
(-0.00161728 0 0)
(-0.00161728 0 0)
(-0.00161728 0 0)
(-0.00161728 0 0)
(-0.00161728 0 0)
(-0.00161727 0 0)
(-0.00161728 0 0)
(-0.00161727 0 0)
(-0.00161728 0 0)
(-0.00161727 0 0)
(-0.00161728 0 0)
(-0.00161727 0 0)
(-0.00161727 0 0)
(-0.00161727 0 0)
(-0.00161727 0 0)
(-0.00161727 0 0)
(-0.00161727 0 0)
(-0.00161727 0 0)
(-0.00161727 0 0)
(-0.00161727 0 0)
(-0.00161727 0 0)
(-0.00161727 0 0)
(-0.00161727 0 0)
(-0.00161727 0 0)
(-0.00161727 0 0)
(-0.00161727 0 0)
(-0.00161727 0 0)
(-0.00161726 0 0)
(-0.00161727 0 0)
(-0.00161727 0 0)
(-0.00161726 0 0)
(-0.00161727 0 0)
(-0.00161726 0 0)
(-0.00161726 0 0)
(-0.00161726 0 0)
(-0.00161726 0 0)
(-0.00161726 0 0)
(-0.00161726 0 0)
(-0.00161726 0 0)
(-0.00161726 0 0)
(-0.00161726 0 0)
(-0.00161726 0 0)
(-0.00161726 0 0)
(-0.00161726 0 0)
(-0.00161726 0 0)
(-0.00161726 0 0)
(-0.00161726 0 0)
(-0.00161726 0 0)
(-0.00161726 0 0)
(-0.00161726 0 0)
(-0.00161726 0 0)
(-0.00161726 0 0)
(-0.00161726 0 0)
(-0.00161726 0 0)
(-0.00161726 0 0)
(-0.00161726 0 0)
(-0.00161726 0 0)
(-0.00161726 0 0)
(-0.00161726 0 0)
(-0.00161726 0 0)
(-0.00161726 0 0)
(-0.00161726 0 0)
(-0.00161726 0 0)
(-0.00161726 0 0)
(-0.00161726 0 0)
(-0.00161726 0 0)
(-0.00161726 0 0)
(-0.00161726 0 0)
(-0.00161726 0 0)
(-0.00161727 0 0)
(-0.00161727 0 0)
(-0.00161727 0 0)
(-0.00161727 0 0)
(-0.00161727 0 0)
(-0.00161727 0 0)
(-0.00161727 0 0)
(-0.00161727 0 0)
(-0.00161728 0 0)
(-0.00161728 0 0)
(-0.00161728 0 0)
(-0.00161728 0 0)
(-0.00161728 0 0)
(-0.00161728 0 0)
(-0.00161729 0 0)
(-0.00161729 0 0)
(-0.00161729 0 0)
(-0.0016173 0 0)
(-0.0016173 0 0)
(-0.0016173 0 0)
(-0.0016173 0 0)
(-0.00161731 0 0)
(-0.00161731 0 0)
(-0.00161732 0 0)
(-0.00161732 0 0)
(-0.00161733 0 0)
(-0.00161733 0 0)
(-0.00161734 0 0)
(-0.00161734 0 0)
(-0.00161735 0 0)
(-0.00161736 0 0)
(-0.00161736 0 0)
(-0.00161737 0 0)
(-0.00161738 0 0)
(-0.00161739 0 0)
(-0.0016174 0 0)
(-0.00161741 0 0)
(-0.00161742 0 0)
(-0.00161744 0 0)
(-0.00161745 0 0)
(-0.00161746 0 0)
(-0.00161748 0 0)
(-0.00161749 0 0)
(-0.00161751 0 0)
(-0.00161753 0 0)
(-0.00161755 0 0)
(-0.00161757 0 0)
(-0.0016176 0 0)
(-0.00161762 0 0)
(-0.00161765 0 0)
(-0.00161768 0 0)
(-0.00161771 0 0)
(-0.00161774 0 0)
(-0.00161778 0 0)
(-0.00161782 0 0)
(-0.00161786 0 0)
(-0.0016179 0 0)
(-0.00161795 0 0)
(-0.001618 0 0)
(-0.00161805 0 0)
(-0.00161811 0 0)
(-0.00161817 0 0)
(-0.00161824 0 0)
(-0.00161831 0 0)
(-0.00161839 0 0)
(-0.00161847 0 0)
(-0.00161856 0 0)
(-0.00161865 0 0)
(-0.00161875 0 0)
(-0.00161885 0 0)
(-0.00161897 0 0)
(-0.00161909 0 0)
(-0.00161921 0 0)
(-0.00161935 0 0)
(-0.0016195 0 0)
(-0.00161965 0 0)
(-0.00161982 0 0)
(-0.00161999 0 0)
(-0.00162018 0 0)
(-0.00162038 0 0)
(-0.00162059 0 0)
(-0.00162081 0 0)
(-0.00162105 0 0)
(-0.0016213 0 0)
(-0.00162157 0 0)
(-0.00162186 0 0)
(-0.00162216 0 0)
(-0.00162248 0 0)
(-0.00162282 0 0)
(-0.00162318 0 0)
(-0.00162357 0 0)
(-0.00162397 0 0)
(-0.0016244 0 0)
(-0.00162485 0 0)
(-0.00162533 0 0)
(-0.00162584 0 0)
(-0.00162638 0 0)
(-0.00162694 0 0)
(-0.00162754 0 0)
(-0.00162817 0 0)
(-0.00162884 0 0)
(-0.00162954 0 0)
(-0.00163028 0 0)
(-0.00163106 0 0)
(-0.00163189 0 0)
(-0.00163275 0 0)
(-0.00163366 0 0)
(-0.00163463 0 0)
(-0.00163564 0 0)
(-0.0016367 0 0)
(-0.00163781 0 0)
(-0.00163899 0 0)
(-0.00164022 0 0)
(-0.00164152 0 0)
(-0.00164287 0 0)
(-0.0016443 0 0)
(-0.00164579 0 0)
(-0.00164736 0 0)
(-0.001649 0 0)
(-0.00165072 0 0)
(-0.00165252 0 0)
(-0.00165441 0 0)
(-0.00165638 0 0)
(-0.00165844 0 0)
(-0.0016606 0 0)
(-0.00166285 0 0)
(-0.0016652 0 0)
(-0.00166766 0 0)
(-0.00167022 0 0)
(-0.00167289 0 0)
(-0.00167568 0 0)
(-0.00167859 0 0)
(-0.00168162 0 0)
(-0.00168477 0 0)
(-0.00168806 0 0)
(-0.00169147 0 0)
(-0.00169503 0 0)
(-0.00169872 0 0)
(-0.00170257 0 0)
(-0.00170656 0 0)
(-0.0017107 0 0)
(-0.00171501 0 0)
(-0.00171947 0 0)
(-0.0017241 0 0)
(-0.0017289 0 0)
(-0.00173388 0 0)
(-0.00173904 0 0)
(-0.00174437 0 0)
(-0.0017499 0 0)
(-0.00175561 0 0)
(-0.00176152 0 0)
(-0.00176764 0 0)
(-0.00177395 0 0)
(-0.00178047 0 0)
(-0.0017872 0 0)
(-0.00179415 0 0)
(-0.00180132 0 0)
(-0.0018087 0 0)
(-0.00181632 0 0)
(-0.00182416 0 0)
(-0.00183224 0 0)
(-0.00184055 0 0)
(-0.0018491 0 0)
(-0.0018579 0 0)
(-0.00186694 0 0)
(-0.00187622 0 0)
(-0.00188576 0 0)
(-0.00189555 0 0)
(-0.00190559 0 0)
(-0.00191589 0 0)
(-0.00192645 0 0)
(-0.00193727 0 0)
(-0.00194834 0 0)
(-0.00195968 0 0)
(-0.00197128 0 0)
(-0.00198314 0 0)
(-0.00199527 0 0)
(-0.00200765 0 0)
(-0.0020203 0 0)
(-0.00203321 0 0)
(-0.00204637 0 0)
(-0.00205979 0 0)
(-0.00207347 0 0)
(-0.0020874 0 0)
(-0.00210158 0 0)
(-0.002116 0 0)
(-0.00213067 0 0)
(-0.00214557 0 0)
(-0.00216071 0 0)
(-0.00217607 0 0)
(-0.00219166 0 0)
(-0.00220746 0 0)
(-0.00222347 0 0)
(-0.00223968 0 0)
(-0.00225608 0 0)
(-0.00227267 0 0)
(-0.00228943 0 0)
(-0.00230636 0 0)
(-0.00232344 0 0)
(-0.00234067 0 0)
(-0.00235803 0 0)
(-0.00237551 0 0)
(-0.00239309 0 0)
(-0.00241077 0 0)
(-0.00242853 0 0)
(-0.00244634 0 0)
(-0.0024642 0 0)
(-0.00248209 0 0)
(-0.00249999 0 0)
(-0.00251789 0 0)
(-0.00253575 0 0)
(-0.00255357 0 0)
(-0.00257131 0 0)
(-0.00258896 0 0)
(-0.0026065 0 0)
(-0.0026239 0 0)
(-0.00264112 0 0)
(-0.00265816 0 0)
(-0.00267498 0 0)
(-0.00269154 0 0)
(-0.00270783 0 0)
(-0.00272381 0 0)
(-0.00273944 0 0)
(-0.0027547 0 0)
(-0.00276954 0 0)
(-0.00278393 0 0)
(-0.00279783 0 0)
(-0.00281119 0 0)
(-0.00282397 0 0)
(-0.00283612 0 0)
(-0.00284757 0 0)
(-0.00285826 0 0)
(-0.00286814 0 0)
(-0.00287697 0 0)
(-0.0028846 0 0)
(-0.00289196 0 0)
(-0.00289921 0 0)
(-0.00290527 0 0)
(-0.00290986 0 0)
(-0.00291319 0 0)
(-0.00291517 0 0)
(-0.00291579 0 0)
(-0.002915 0 0)
(-0.00291268 0 0)
(-0.00290881 0 0)
(-0.00290326 0 0)
(-0.00289596 0 0)
(-0.0028868 0 0)
(-0.00287567 0 0)
(-0.00286248 0 0)
(-0.0028471 0 0)
(-0.00282941 0 0)
(-0.0028093 0 0)
(-0.00278663 0 0)
(-0.00276128 0 0)
(-0.00273311 0 0)
(-0.00270199 0 0)
(-0.00266778 0 0)
(-0.00263034 0 0)
(-0.00258954 0 0)
(-0.00254525 0 0)
(-0.00249735 0 0)
(-0.00244571 0 0)
(-0.00239023 0 0)
(-0.00233082 0 0)
(-0.00226738 0 0)
(-0.00219998 0 0)
(-0.00212888 0 0)
(-0.00205408 0 0)
(-0.00197268 0 0)
(-0.00187819 0 0)
(-0.0017852 0 0)
)
;

boundaryField
{
    fixedWall
    {
        type            fixedValue;
        value           uniform (0 0 0);
    }
    outlet
    {
        type            pressureInletOutletVelocity;
        value           uniform (-0.0017852 0 0);
    }
    defaultFaces
    {
        type            empty;
    }
}


// ************************************************************************* //
