/*--------------------------------*- C++ -*----------------------------------*\
| =========                 |                                                 |
| \\      /  F ield         | OpenFOAM: The Open Source CFD Toolbox           |
|  \\    /   O peration     | Version:  2406                                  |
|   \\  /    A nd           | Website:  www.openfoam.com                      |
|    \\/     M anipulation  |                                                 |
\*---------------------------------------------------------------------------*/
FoamFile
{
    version     2.0;
    format      ascii;
    arch        "LSB;label=32;scalar=64";
    class       volScalarField;
    location    "3.9";
    object      H2O;
}
// * * * * * * * * * * * * * * * * * * * * * * * * * * * * * * * * * * * * * //

dimensions      [0 0 0 0 0 0 0];

internalField   nonuniform List<scalar> 
1000
(
0.0580663
0.0580663
0.0580663
0.0580663
0.0580663
0.0580663
0.0580663
0.0580663
0.0580664
0.0580664
0.0580664
0.0580664
0.0580664
0.0580664
0.0580664
0.0580664
0.0580664
0.0580665
0.0580665
0.0580665
0.0580665
0.0580665
0.0580665
0.0580665
0.0580665
0.0580666
0.0580666
0.0580666
0.0580666
0.0580666
0.0580666
0.0580666
0.0580666
0.0580667
0.0580667
0.0580667
0.0580667
0.0580667
0.0580667
0.0580667
0.0580667
0.0580667
0.0580667
0.0580668
0.0580668
0.0580668
0.0580668
0.0580668
0.0580668
0.0580668
0.0580668
0.0580668
0.0580668
0.0580668
0.0580668
0.0580668
0.0580668
0.0580668
0.0580668
0.0580668
0.0580668
0.0580668
0.0580668
0.0580669
0.0580669
0.0580669
0.0580669
0.0580669
0.0580669
0.0580669
0.0580669
0.0580669
0.0580669
0.0580669
0.0580669
0.0580669
0.0580669
0.0580669
0.0580669
0.0580669
0.0580669
0.0580669
0.0580669
0.0580669
0.0580669
0.0580669
0.0580669
0.0580669
0.0580669
0.0580669
0.0580669
0.0580669
0.0580669
0.0580669
0.0580669
0.0580669
0.0580669
0.0580669
0.0580669
0.0580669
0.0580669
0.0580669
0.0580669
0.0580669
0.0580669
0.0580669
0.0580669
0.0580669
0.0580669
0.0580669
0.0580669
0.0580669
0.0580669
0.0580669
0.0580669
0.0580669
0.0580669
0.0580669
0.0580669
0.0580669
0.0580669
0.0580669
0.0580669
0.0580668
0.0580668
0.0580668
0.0580668
0.0580668
0.0580668
0.0580668
0.0580668
0.0580668
0.0580668
0.0580668
0.0580668
0.0580668
0.0580668
0.0580668
0.0580668
0.0580668
0.0580668
0.0580668
0.0580668
0.0580668
0.0580668
0.0580668
0.0580668
0.0580668
0.0580668
0.0580668
0.0580668
0.0580668
0.0580668
0.0580668
0.0580668
0.0580668
0.0580668
0.0580668
0.0580668
0.0580668
0.0580668
0.0580668
0.0580668
0.0580668
0.0580668
0.0580668
0.0580668
0.0580668
0.0580668
0.0580668
0.0580668
0.0580668
0.0580668
0.0580668
0.0580668
0.0580668
0.0580668
0.0580668
0.0580668
0.0580668
0.0580668
0.0580668
0.0580668
0.0580668
0.0580668
0.0580668
0.0580668
0.0580668
0.0580668
0.0580668
0.0580668
0.0580668
0.0580668
0.0580668
0.0580668
0.0580668
0.0580668
0.0580668
0.0580668
0.0580668
0.0580668
0.0580668
0.0580668
0.0580668
0.0580668
0.0580668
0.0580668
0.0580668
0.0580668
0.0580668
0.0580668
0.0580668
0.0580668
0.0580668
0.0580668
0.0580668
0.0580668
0.0580668
0.0580668
0.0580668
0.0580668
0.0580668
0.0580668
0.0580668
0.0580668
0.0580668
0.0580668
0.0580668
0.0580668
0.0580668
0.0580668
0.0580668
0.0580668
0.0580667
0.0580667
0.0580667
0.0580667
0.0580667
0.0580667
0.0580667
0.0580667
0.0580667
0.0580667
0.0580667
0.0580667
0.0580667
0.0580667
0.0580667
0.0580667
0.0580667
0.0580667
0.0580667
0.0580667
0.0580667
0.0580667
0.0580667
0.0580667
0.0580667
0.0580667
0.0580667
0.0580667
0.0580667
0.0580667
0.0580667
0.0580667
0.0580667
0.0580667
0.0580667
0.0580667
0.0580667
0.0580667
0.0580667
0.0580667
0.0580667
0.0580667
0.0580667
0.0580667
0.0580667
0.0580667
0.0580667
0.0580667
0.0580667
0.0580667
0.0580667
0.0580667
0.0580667
0.0580667
0.0580667
0.0580667
0.0580667
0.0580667
0.0580667
0.0580667
0.0580667
0.0580667
0.0580667
0.0580667
0.0580667
0.0580667
0.0580667
0.0580667
0.0580667
0.0580667
0.0580666
0.0580666
0.0580666
0.0580666
0.0580666
0.0580666
0.0580666
0.0580666
0.0580666
0.0580666
0.0580666
0.0580666
0.0580666
0.0580666
0.0580666
0.0580666
0.0580666
0.0580666
0.0580666
0.0580666
0.0580666
0.0580666
0.0580666
0.0580666
0.0580666
0.0580666
0.0580666
0.0580666
0.0580666
0.0580666
0.0580666
0.0580666
0.0580666
0.0580666
0.0580666
0.0580666
0.0580666
0.0580666
0.0580666
0.0580666
0.0580666
0.0580666
0.0580666
0.0580666
0.0580666
0.0580666
0.0580666
0.0580666
0.0580666
0.0580665
0.0580665
0.0580665
0.0580665
0.0580665
0.0580665
0.0580665
0.0580665
0.0580665
0.0580665
0.0580665
0.0580665
0.0580665
0.0580665
0.0580665
0.0580665
0.0580665
0.0580665
0.0580665
0.0580665
0.0580665
0.0580665
0.0580665
0.0580665
0.0580665
0.0580665
0.0580665
0.0580665
0.0580665
0.0580665
0.0580665
0.0580665
0.0580665
0.0580665
0.0580665
0.0580664
0.0580664
0.0580664
0.0580664
0.0580664
0.0580664
0.0580664
0.0580664
0.0580664
0.0580664
0.0580664
0.0580664
0.0580664
0.0580664
0.0580664
0.0580664
0.0580664
0.0580664
0.0580664
0.0580664
0.0580664
0.0580664
0.0580664
0.0580664
0.0580664
0.0580664
0.0580664
0.0580663
0.0580663
0.0580663
0.0580663
0.0580663
0.0580663
0.0580663
0.0580663
0.0580663
0.0580663
0.0580663
0.0580663
0.0580663
0.0580663
0.0580663
0.0580663
0.0580663
0.0580663
0.0580663
0.0580663
0.0580663
0.0580662
0.0580662
0.0580662
0.0580662
0.0580662
0.0580662
0.0580662
0.0580662
0.0580662
0.0580662
0.0580662
0.0580662
0.0580662
0.0580662
0.0580662
0.0580662
0.0580662
0.0580661
0.0580661
0.0580661
0.0580661
0.0580661
0.0580661
0.0580661
0.0580661
0.0580661
0.0580661
0.0580661
0.0580661
0.0580661
0.0580661
0.058066
0.058066
0.058066
0.058066
0.058066
0.058066
0.058066
0.058066
0.058066
0.058066
0.058066
0.058066
0.0580659
0.0580659
0.0580659
0.0580659
0.0580659
0.0580659
0.0580659
0.0580659
0.0580659
0.0580659
0.0580658
0.0580658
0.0580658
0.0580658
0.0580658
0.0580658
0.0580658
0.0580658
0.0580658
0.0580657
0.0580657
0.0580657
0.0580657
0.0580657
0.0580657
0.0580657
0.0580656
0.0580656
0.0580656
0.0580656
0.0580656
0.0580656
0.0580656
0.0580655
0.0580655
0.0580655
0.0580655
0.0580655
0.0580655
0.0580654
0.0580654
0.0580654
0.0580654
0.0580654
0.0580653
0.0580653
0.0580653
0.0580653
0.0580653
0.0580652
0.0580652
0.0580652
0.0580652
0.0580651
0.0580651
0.0580651
0.0580651
0.058065
0.058065
0.058065
0.0580649
0.0580649
0.0580649
0.0580649
0.0580648
0.0580648
0.0580648
0.0580647
0.0580647
0.0580646
0.0580646
0.0580646
0.0580645
0.0580645
0.0580644
0.0580644
0.0580643
0.0580643
0.0580642
0.0580642
0.0580641
0.0580641
0.058064
0.058064
0.0580639
0.0580638
0.0580638
0.0580637
0.0580636
0.0580636
0.0580635
0.0580634
0.0580633
0.0580632
0.0580631
0.058063
0.0580629
0.0580628
0.0580627
0.0580626
0.0580625
0.0580623
0.0580622
0.058062
0.0580619
0.0580617
0.0580615
0.0580613
0.0580611
0.0580609
0.0580607
0.0580604
0.0580602
0.0580599
0.0580595
0.0580592
0.0580588
0.0580584
0.0580579
0.0580574
0.0580569
0.0580562
0.0580555
0.0580547
0.0580538
0.0580528
0.0580516
0.0580502
0.0580486
0.0580466
0.0580442
0.0580413
0.0580376
0.0580328
0.0580263
0.058017
0.0580031
0.0579804
0.0579397
0.0578549
0.0576409
0.0569852
0.0546385
0.0444438
0.0218596
0.0106562
0.00523244
0.00258575
0.00128351
0.000638858
0.000318491
0.000158917
7.93299e-05
3.96087e-05
1.97771e-05
9.87456e-06
4.92983e-06
2.46092e-06
1.22834e-06
6.1305e-07
3.05964e-07
1.52712e-07
7.62368e-08
3.81021e-08
1.9054e-08
9.57558e-09
4.84939e-09
2.48089e-09
1.3082e-09
9.01181e-10
5.68371e-10
3.48729e-10
2.39329e-10
1.81241e-10
1.57244e-10
1.44867e-10
1.38534e-10
1.34491e-10
1.32089e-10
1.30756e-10
1.30082e-10
1.29606e-10
1.2933e-10
1.29149e-10
1.29083e-10
1.2904e-10
1.29016e-10
1.29002e-10
1.28995e-10
1.2899e-10
1.28988e-10
1.28986e-10
1.28986e-10
1.28986e-10
1.28986e-10
1.28986e-10
1.28986e-10
1.28987e-10
1.28987e-10
1.28988e-10
1.28988e-10
1.28989e-10
1.28989e-10
1.2899e-10
1.2899e-10
1.2899e-10
1.28991e-10
1.28991e-10
1.28992e-10
1.28992e-10
1.28993e-10
1.28993e-10
1.28994e-10
1.28994e-10
1.28995e-10
1.28996e-10
1.28996e-10
1.28996e-10
1.28997e-10
1.28997e-10
1.28998e-10
1.28998e-10
1.28999e-10
1.28999e-10
1.29e-10
1.29e-10
1.29001e-10
1.29001e-10
1.29001e-10
1.29002e-10
1.29002e-10
1.29003e-10
1.29003e-10
1.29004e-10
1.29004e-10
1.29005e-10
1.29005e-10
1.29006e-10
1.29007e-10
1.29007e-10
1.29008e-10
1.29008e-10
1.29009e-10
1.29009e-10
1.2901e-10
1.2901e-10
1.2901e-10
1.29011e-10
1.29011e-10
1.29012e-10
1.29012e-10
1.29013e-10
1.29013e-10
1.29014e-10
1.29014e-10
1.29015e-10
1.29015e-10
1.29016e-10
1.29016e-10
1.29017e-10
1.29017e-10
1.29018e-10
1.29018e-10
1.29019e-10
1.29019e-10
1.2902e-10
1.2902e-10
1.29021e-10
1.29021e-10
1.29022e-10
1.29022e-10
1.29022e-10
1.29023e-10
1.29023e-10
1.29024e-10
1.29024e-10
1.29025e-10
1.29025e-10
1.29026e-10
1.29026e-10
1.29027e-10
1.29027e-10
1.29028e-10
1.29028e-10
1.29029e-10
1.29029e-10
1.2903e-10
1.2903e-10
1.2903e-10
1.29031e-10
1.29032e-10
1.29032e-10
1.29033e-10
1.29033e-10
1.29034e-10
1.29034e-10
1.29035e-10
1.29035e-10
1.29036e-10
1.29036e-10
1.29037e-10
1.29037e-10
1.29038e-10
1.29039e-10
1.29039e-10
1.2904e-10
1.2904e-10
1.2904e-10
1.29041e-10
1.29042e-10
1.29042e-10
1.29043e-10
1.29043e-10
1.29044e-10
1.29044e-10
1.29045e-10
1.29045e-10
1.29046e-10
1.29046e-10
1.29047e-10
1.29047e-10
1.29048e-10
1.29048e-10
1.29049e-10
1.29049e-10
1.29049e-10
1.2905e-10
1.29051e-10
1.29051e-10
1.29051e-10
1.29052e-10
1.29052e-10
1.29053e-10
1.29053e-10
1.29054e-10
1.29054e-10
1.29055e-10
1.29055e-10
1.29056e-10
1.29056e-10
1.29057e-10
1.29057e-10
1.29058e-10
1.29058e-10
1.29059e-10
1.29059e-10
1.2906e-10
1.2906e-10
1.29061e-10
1.29061e-10
1.29062e-10
1.29063e-10
1.29063e-10
1.29064e-10
1.29064e-10
1.29065e-10
1.29065e-10
1.29066e-10
1.29066e-10
1.29067e-10
1.29067e-10
1.29067e-10
1.29068e-10
1.29068e-10
1.29069e-10
1.29069e-10
1.2907e-10
1.2907e-10
1.29071e-10
1.29071e-10
1.29072e-10
1.29072e-10
1.29073e-10
1.29074e-10
1.29074e-10
1.29074e-10
1.29075e-10
1.29076e-10
1.29076e-10
1.29076e-10
1.29077e-10
1.29077e-10
1.29078e-10
1.29078e-10
1.29079e-10
1.2908e-10
1.2908e-10
1.29081e-10
1.29081e-10
1.29081e-10
1.29082e-10
1.29083e-10
1.29083e-10
1.29084e-10
1.29084e-10
1.29085e-10
1.29085e-10
1.29086e-10
1.29086e-10
1.29087e-10
1.29087e-10
1.29087e-10
1.29088e-10
1.29088e-10
1.29089e-10
1.2909e-10
1.2909e-10
1.2909e-10
1.29091e-10
1.29092e-10
1.29092e-10
1.29093e-10
1.29093e-10
1.29094e-10
1.29094e-10
1.29095e-10
1.29095e-10
1.29096e-10
1.29096e-10
1.29097e-10
1.29097e-10
1.29098e-10
1.29098e-10
1.29099e-10
1.29099e-10
1.29099e-10
1.291e-10
1.29101e-10
1.29101e-10
1.29101e-10
1.29102e-10
1.29103e-10
1.29103e-10
1.29104e-10
1.29104e-10
1.29105e-10
1.29105e-10
1.29106e-10
1.29106e-10
1.29107e-10
1.29107e-10
1.29108e-10
1.29108e-10
1.29109e-10
1.2911e-10
1.2911e-10
1.29111e-10
1.29111e-10
1.29112e-10
1.29112e-10
1.29113e-10
1.29113e-10
1.29114e-10
1.29114e-10
1.29115e-10
1.29115e-10
1.29116e-10
1.29116e-10
1.29117e-10
1.29117e-10
1.29118e-10
1.29118e-10
1.29119e-10
1.29119e-10
1.2912e-10
1.2912e-10
1.29121e-10
1.29121e-10
1.29122e-10
1.29122e-10
1.29122e-10
1.29123e-10
1.29123e-10
1.29124e-10
1.29125e-10
1.29125e-10
1.29126e-10
1.29126e-10
1.29127e-10
1.29127e-10
1.29128e-10
1.29129e-10
1.29129e-10
1.2913e-10
1.2913e-10
1.29131e-10
1.29131e-10
1.29132e-10
1.29132e-10
1.29133e-10
1.29134e-10
1.29134e-10
1.29135e-10
1.29135e-10
1.29135e-10
1.29136e-10
1.29136e-10
1.29137e-10
1.29137e-10
1.29138e-10
1.29138e-10
1.29139e-10
1.29139e-10
1.2914e-10
1.2914e-10
1.29141e-10
1.29141e-10
1.29142e-10
1.29142e-10
1.29143e-10
1.29143e-10
1.29144e-10
1.29144e-10
1.29145e-10
1.29145e-10
1.29146e-10
1.29146e-10
1.29147e-10
1.29147e-10
1.29148e-10
1.29148e-10
1.29149e-10
)
;

boundaryField
{
    fixedWall
    {
        type            zeroGradient;
    }
    outlet
    {
        type            inletOutlet;
        inletValue      uniform 0;
        value           uniform 1.29149e-10;
    }
    defaultFaces
    {
        type            empty;
    }
}


// ************************************************************************* //
