/*--------------------------------*- C++ -*----------------------------------*\
| =========                 |                                                 |
| \\      /  F ield         | OpenFOAM: The Open Source CFD Toolbox           |
|  \\    /   O peration     | Version:  2406                                  |
|   \\  /    A nd           | Website:  www.openfoam.com                      |
|    \\/     M anipulation  |                                                 |
\*---------------------------------------------------------------------------*/
FoamFile
{
    version     2.0;
    format      ascii;
    arch        "LSB;label=32;scalar=64";
    class       volScalarField;
    location    "3.9";
    object      T;
}
// * * * * * * * * * * * * * * * * * * * * * * * * * * * * * * * * * * * * * //

dimensions      [0 0 0 1 0 0 0];

internalField   nonuniform List<scalar> 
1000
(
314.359
351.799
385.086
415.146
442.596
467.874
491.303
513.133
533.558
552.735
570.793
587.839
603.961
619.236
633.73
647.5
660.595
673.059
684.933
696.25
707.043
717.34
727.168
736.549
745.507
754.061
762.231
770.034
777.486
784.602
791.398
797.887
804.082
809.995
815.638
821.021
826.156
831.053
835.72
840.168
844.405
848.441
852.282
855.937
859.413
862.719
865.86
868.844
871.677
874.365
876.916
879.334
881.625
883.795
885.849
887.792
889.629
891.365
893.005
894.553
896.012
897.389
898.685
899.906
901.055
902.135
903.15
904.103
904.997
905.836
906.621
907.357
908.046
908.69
909.292
909.853
910.377
910.866
911.321
911.744
912.138
912.504
912.843
913.157
913.447
913.718
913.969
914.2
914.414
914.611
914.793
914.96
915.114
915.256
915.386
915.505
915.614
915.713
915.805
915.888
915.964
916.033
916.095
916.152
916.204
916.251
916.293
916.331
916.366
916.397
916.424
916.449
916.472
916.492
916.509
916.525
916.539
916.551
916.562
916.572
916.58
916.587
916.594
916.599
916.604
916.608
916.611
916.614
916.616
916.618
916.62
916.621
916.622
916.623
916.624
916.624
916.624
916.624
916.624
916.624
916.624
916.624
916.623
916.623
916.622
916.622
916.621
916.621
916.62
916.62
916.619
916.619
916.618
916.618
916.617
916.617
916.616
916.616
916.615
916.615
916.614
916.614
916.613
916.613
916.612
916.612
916.611
916.61
916.61
916.609
916.609
916.608
916.607
916.607
916.606
916.605
916.605
916.604
916.603
916.602
916.602
916.601
916.6
916.599
916.598
916.597
916.596
916.595
916.594
916.593
916.592
916.591
916.59
916.589
916.588
916.587
916.585
916.584
916.583
916.582
916.58
916.579
916.578
916.577
916.575
916.574
916.572
916.571
916.57
916.568
916.567
916.565
916.564
916.562
916.561
916.559
916.558
916.556
916.555
916.553
916.552
916.55
916.549
916.547
916.546
916.544
916.543
916.541
916.54
916.538
916.537
916.535
916.534
916.532
916.531
916.529
916.528
916.526
916.525
916.523
916.522
916.52
916.519
916.518
916.516
916.515
916.513
916.512
916.511
916.509
916.508
916.507
916.506
916.504
916.503
916.502
916.501
916.5
916.498
916.497
916.496
916.495
916.494
916.493
916.492
916.491
916.49
916.489
916.489
916.488
916.487
916.486
916.485
916.485
916.484
916.483
916.483
916.482
916.482
916.481
916.481
916.48
916.48
916.479
916.479
916.479
916.478
916.478
916.478
916.478
916.477
916.477
916.477
916.477
916.477
916.477
916.477
916.477
916.477
916.477
916.477
916.477
916.477
916.477
916.477
916.477
916.478
916.478
916.478
916.478
916.478
916.479
916.479
916.479
916.479
916.48
916.48
916.48
916.48
916.481
916.481
916.481
916.482
916.482
916.482
916.483
916.483
916.483
916.484
916.484
916.485
916.485
916.485
916.486
916.486
916.487
916.487
916.488
916.488
916.489
916.489
916.49
916.49
916.491
916.492
916.492
916.493
916.493
916.494
916.495
916.496
916.496
916.497
916.498
916.499
916.499
916.5
916.501
916.502
916.503
916.504
916.505
916.506
916.507
916.508
916.509
916.51
916.511
916.512
916.513
916.514
916.515
916.516
916.517
916.518
916.519
916.52
916.521
916.522
916.523
916.524
916.525
916.526
916.527
916.528
916.529
916.53
916.531
916.532
916.532
916.533
916.534
916.535
916.535
916.536
916.537
916.537
916.538
916.538
916.538
916.539
916.539
916.539
916.539
916.539
916.539
916.539
916.539
916.539
916.539
916.538
916.538
916.537
916.536
916.536
916.535
916.534
916.533
916.532
916.53
916.529
916.528
916.526
916.525
916.523
916.522
916.52
916.518
916.516
916.515
916.513
916.511
916.509
916.508
916.506
916.504
916.503
916.501
916.5
916.499
916.497
916.496
916.495
916.494
916.494
916.493
916.492
916.492
916.492
916.492
916.492
916.493
916.493
916.494
916.494
916.495
916.496
916.497
916.499
916.5
916.502
916.503
916.505
916.507
916.508
916.51
916.512
916.514
916.516
916.517
916.519
916.521
916.522
916.524
916.526
916.527
916.528
916.529
916.53
916.531
916.532
916.532
916.533
916.533
916.533
916.533
916.533
916.532
916.531
916.531
916.53
916.529
916.528
916.526
916.525
916.524
916.522
916.521
916.519
916.518
916.517
916.515
916.514
916.513
916.512
916.511
916.511
916.51
916.51
916.51
916.509
916.509
916.51
916.51
916.51
916.511
916.511
916.512
916.512
916.513
916.513
916.514
916.514
916.514
916.514
916.514
916.514
916.514
916.513
916.512
916.511
916.51
916.509
916.508
916.507
916.506
916.505
916.504
916.503
916.503
916.503
916.502
916.503
916.503
916.504
916.505
916.507
916.509
916.511
916.513
916.515
916.518
916.52
916.523
916.525
916.527
916.529
916.531
916.532
916.532
916.532
916.531
916.53
916.528
916.526
916.523
916.519
916.516
916.511
916.507
916.503
916.499
916.495
916.492
916.489
916.486
916.484
916.482
916.48
916.479
916.477
916.475
916.472
916.469
916.465
916.459
916.453
916.446
916.438
916.429
916.42
916.41
916.4
916.39
916.38
916.37
916.36
916.351
916.342
916.333
916.325
916.318
916.312
916.308
916.305
916.305
916.308
916.312
916.319
916.326
916.332
916.331
916.315
916.267
916.155
915.931
915.505
914.683
912.849
907.707
890.123
815.914
615.191
480.93
398.458
350.768
324.242
309.787
301.988
297.799
295.554
294.352
293.71
293.366
293.182
293.084
293.031
293.003
292.989
292.981
292.976
292.974
292.973
292.972
292.972
292.972
292.972
292.972
292.972
292.972
292.972
292.972
292.972
292.972
292.972
292.972
292.972
292.972
292.972
292.972
292.972
292.972
292.973
292.973
292.973
292.973
292.973
292.973
292.973
292.973
292.973
292.973
292.973
292.973
292.973
292.973
292.973
292.973
292.973
292.973
292.973
292.973
292.974
292.974
292.974
292.974
292.974
292.974
292.974
292.974
292.974
292.974
292.974
292.974
292.974
292.974
292.974
292.974
292.974
292.974
292.974
292.974
292.975
292.975
292.975
292.975
292.975
292.975
292.975
292.975
292.975
292.975
292.975
292.975
292.975
292.975
292.975
292.975
292.975
292.975
292.975
292.975
292.976
292.976
292.976
292.976
292.976
292.976
292.976
292.976
292.976
292.976
292.976
292.976
292.976
292.976
292.976
292.976
292.976
292.976
292.976
292.976
292.977
292.977
292.977
292.977
292.977
292.977
292.977
292.977
292.977
292.977
292.977
292.977
292.977
292.977
292.977
292.977
292.977
292.977
292.977
292.977
292.978
292.978
292.978
292.978
292.978
292.978
292.978
292.978
292.978
292.978
292.978
292.978
292.978
292.978
292.978
292.978
292.978
292.978
292.978
292.979
292.979
292.979
292.979
292.979
292.979
292.979
292.979
292.979
292.979
292.979
292.979
292.979
292.979
292.979
292.979
292.979
292.979
292.979
292.979
292.98
292.98
292.98
292.98
292.98
292.98
292.98
292.98
292.98
292.98
292.98
292.98
292.98
292.98
292.98
292.98
292.98
292.98
292.98
292.98
292.981
292.981
292.981
292.981
292.981
292.981
292.981
292.981
292.981
292.981
292.981
292.981
292.981
292.981
292.981
292.981
292.981
292.981
292.981
292.981
292.982
292.982
292.982
292.982
292.982
292.982
292.982
292.982
292.982
292.982
292.982
292.982
292.982
292.982
292.982
292.982
292.982
292.982
292.982
292.982
292.983
292.983
292.983
292.983
292.983
292.983
292.983
292.983
292.983
292.983
292.983
292.983
292.983
292.983
292.983
292.983
292.983
292.983
292.983
292.983
292.984
292.984
292.984
292.984
292.984
292.984
292.984
292.984
292.984
292.984
292.984
292.984
292.984
292.984
292.984
292.984
292.984
292.984
292.984
292.984
292.985
292.985
292.985
292.985
292.985
292.985
292.985
292.985
292.985
292.985
292.985
292.985
292.985
292.985
292.985
292.985
292.985
292.985
292.985
292.986
292.986
292.986
292.986
292.986
292.986
292.986
292.986
292.986
292.986
292.986
292.986
292.986
292.986
292.986
292.986
292.986
292.986
292.986
292.986
292.987
292.987
292.987
292.987
292.987
292.987
292.987
292.987
292.987
292.987
292.987
292.987
292.987
292.987
292.987
292.987
292.987
292.987
292.987
292.988
292.988
292.988
292.988
292.988
292.988
292.988
292.988
292.988
292.988
292.988
292.988
292.988
292.988
292.988
292.988
292.988
292.988
292.988
292.988
292.989
292.989
292.989
292.989
292.989
292.989
292.989
292.989
292.989
292.989
292.989
292.989
292.989
292.989
292.989
292.989
292.989
292.989
292.989
292.989
292.99
)
;

boundaryField
{
    fixedWall
    {
        type            fixedValue;
        value           uniform 293;
    }
    outlet
    {
        type            inletOutlet;
        inletValue      uniform 293;
        value           uniform 292.99;
    }
    defaultFaces
    {
        type            empty;
    }
}


// ************************************************************************* //
