/*--------------------------------*- C++ -*----------------------------------*\
| =========                 |                                                 |
| \\      /  F ield         | OpenFOAM: The Open Source CFD Toolbox           |
|  \\    /   O peration     | Version:  2406                                  |
|   \\  /    A nd           | Website:  www.openfoam.com                      |
|    \\/     M anipulation  |                                                 |
\*---------------------------------------------------------------------------*/
FoamFile
{
    version     2.0;
    format      ascii;
    arch        "LSB;label=32;scalar=64";
    class       volVectorField;
    location    "3.9";
    object      U;
}
// * * * * * * * * * * * * * * * * * * * * * * * * * * * * * * * * * * * * * //

dimensions      [0 1 -1 0 0 0 0];

internalField   nonuniform List<vector> 
1000
(
(-4.62026e-06 0 0)
(-2.11857e-05 0 0)
(-5.15706e-05 0 0)
(-9.07212e-05 0 0)
(-0.000136032 0 0)
(-0.00018601 0 0)
(-0.000239627 0 0)
(-0.000296078 0 0)
(-0.000354723 0 0)
(-0.00041505 0 0)
(-0.000476647 0 0)
(-0.000539172 0 0)
(-0.000602342 0 0)
(-0.000665914 0 0)
(-0.000729681 0 0)
(-0.000793465 0 0)
(-0.000857112 0 0)
(-0.000920483 0 0)
(-0.000983461 0 0)
(-0.00104594 0 0)
(-0.00110782 0 0)
(-0.00116903 0 0)
(-0.00122948 0 0)
(-0.00128912 0 0)
(-0.00134788 0 0)
(-0.00140571 0 0)
(-0.00146257 0 0)
(-0.00151842 0 0)
(-0.00157321 0 0)
(-0.00162692 0 0)
(-0.00167952 0 0)
(-0.00173099 0 0)
(-0.00178131 0 0)
(-0.00183046 0 0)
(-0.00187843 0 0)
(-0.00192521 0 0)
(-0.00197079 0 0)
(-0.00201517 0 0)
(-0.00205835 0 0)
(-0.00210033 0 0)
(-0.0021411 0 0)
(-0.00218068 0 0)
(-0.00221907 0 0)
(-0.00225628 0 0)
(-0.00229232 0 0)
(-0.0023272 0 0)
(-0.00236093 0 0)
(-0.00239352 0 0)
(-0.002425 0 0)
(-0.00245538 0 0)
(-0.00248468 0 0)
(-0.00251291 0 0)
(-0.00254009 0 0)
(-0.00256625 0 0)
(-0.00259141 0 0)
(-0.00261558 0 0)
(-0.00263879 0 0)
(-0.00266106 0 0)
(-0.00268242 0 0)
(-0.00270289 0 0)
(-0.00272248 0 0)
(-0.00274124 0 0)
(-0.00275917 0 0)
(-0.0027763 0 0)
(-0.00279267 0 0)
(-0.00280829 0 0)
(-0.00282318 0 0)
(-0.00283737 0 0)
(-0.00285089 0 0)
(-0.00286375 0 0)
(-0.00287599 0 0)
(-0.00288762 0 0)
(-0.00289866 0 0)
(-0.00290915 0 0)
(-0.0029191 0 0)
(-0.00292853 0 0)
(-0.00293747 0 0)
(-0.00294593 0 0)
(-0.00295394 0 0)
(-0.00296152 0 0)
(-0.00296867 0 0)
(-0.00297538 0 0)
(-0.00298173 0 0)
(-0.00298775 0 0)
(-0.00299343 0 0)
(-0.00299881 0 0)
(-0.00300389 0 0)
(-0.00300867 0 0)
(-0.00301316 0 0)
(-0.00301739 0 0)
(-0.00302137 0 0)
(-0.00302512 0 0)
(-0.00302864 0 0)
(-0.00303196 0 0)
(-0.00303508 0 0)
(-0.00303801 0 0)
(-0.00304077 0 0)
(-0.00304336 0 0)
(-0.0030458 0 0)
(-0.0030481 0 0)
(-0.00305026 0 0)
(-0.00305229 0 0)
(-0.00305421 0 0)
(-0.00305601 0 0)
(-0.00305771 0 0)
(-0.00305932 0 0)
(-0.00306083 0 0)
(-0.00306227 0 0)
(-0.00306362 0 0)
(-0.0030649 0 0)
(-0.00306612 0 0)
(-0.00306728 0 0)
(-0.00306837 0 0)
(-0.00306942 0 0)
(-0.00307042 0 0)
(-0.00307137 0 0)
(-0.00307228 0 0)
(-0.00307315 0 0)
(-0.00307399 0 0)
(-0.00307479 0 0)
(-0.00307557 0 0)
(-0.00307632 0 0)
(-0.00307704 0 0)
(-0.00307775 0 0)
(-0.00307844 0 0)
(-0.00307909 0 0)
(-0.00307973 0 0)
(-0.00308038 0 0)
(-0.00308099 0 0)
(-0.00308159 0 0)
(-0.0030822 0 0)
(-0.00308277 0 0)
(-0.00308335 0 0)
(-0.00308392 0 0)
(-0.00308448 0 0)
(-0.00308503 0 0)
(-0.00308558 0 0)
(-0.00308612 0 0)
(-0.00308666 0 0)
(-0.00308719 0 0)
(-0.00308772 0 0)
(-0.00308825 0 0)
(-0.00308878 0 0)
(-0.0030893 0 0)
(-0.00308982 0 0)
(-0.00309034 0 0)
(-0.00309086 0 0)
(-0.00309137 0 0)
(-0.00309189 0 0)
(-0.00309241 0 0)
(-0.00309292 0 0)
(-0.00309344 0 0)
(-0.00309395 0 0)
(-0.00309446 0 0)
(-0.00309498 0 0)
(-0.00309549 0 0)
(-0.00309601 0 0)
(-0.00309652 0 0)
(-0.00309703 0 0)
(-0.00309755 0 0)
(-0.00309806 0 0)
(-0.00309858 0 0)
(-0.00309909 0 0)
(-0.00309961 0 0)
(-0.00310013 0 0)
(-0.00310064 0 0)
(-0.00310116 0 0)
(-0.00310168 0 0)
(-0.00310219 0 0)
(-0.00310271 0 0)
(-0.00310323 0 0)
(-0.00310375 0 0)
(-0.00310427 0 0)
(-0.00310478 0 0)
(-0.0031053 0 0)
(-0.00310582 0 0)
(-0.00310634 0 0)
(-0.00310686 0 0)
(-0.00310738 0 0)
(-0.0031079 0 0)
(-0.00310842 0 0)
(-0.00310894 0 0)
(-0.00310946 0 0)
(-0.00310998 0 0)
(-0.0031105 0 0)
(-0.00311102 0 0)
(-0.00311154 0 0)
(-0.00311206 0 0)
(-0.00311258 0 0)
(-0.00311311 0 0)
(-0.00311363 0 0)
(-0.00311415 0 0)
(-0.00311467 0 0)
(-0.00311519 0 0)
(-0.00311571 0 0)
(-0.00311623 0 0)
(-0.00311675 0 0)
(-0.00311727 0 0)
(-0.00311779 0 0)
(-0.00311831 0 0)
(-0.00311883 0 0)
(-0.00311935 0 0)
(-0.00311987 0 0)
(-0.00312039 0 0)
(-0.00312091 0 0)
(-0.00312143 0 0)
(-0.00312195 0 0)
(-0.00312246 0 0)
(-0.00312298 0 0)
(-0.0031235 0 0)
(-0.00312402 0 0)
(-0.00312454 0 0)
(-0.00312506 0 0)
(-0.00312557 0 0)
(-0.00312609 0 0)
(-0.00312661 0 0)
(-0.00312713 0 0)
(-0.00312764 0 0)
(-0.00312816 0 0)
(-0.00312868 0 0)
(-0.00312919 0 0)
(-0.00312971 0 0)
(-0.00313023 0 0)
(-0.00313074 0 0)
(-0.00313126 0 0)
(-0.00313178 0 0)
(-0.00313229 0 0)
(-0.00313281 0 0)
(-0.00313332 0 0)
(-0.00313384 0 0)
(-0.00313435 0 0)
(-0.00313487 0 0)
(-0.00313538 0 0)
(-0.0031359 0 0)
(-0.00313641 0 0)
(-0.00313693 0 0)
(-0.00313744 0 0)
(-0.00313796 0 0)
(-0.00313847 0 0)
(-0.00313899 0 0)
(-0.0031395 0 0)
(-0.00314001 0 0)
(-0.00314053 0 0)
(-0.00314104 0 0)
(-0.00314155 0 0)
(-0.00314207 0 0)
(-0.00314258 0 0)
(-0.00314309 0 0)
(-0.00314361 0 0)
(-0.00314412 0 0)
(-0.00314463 0 0)
(-0.00314514 0 0)
(-0.00314566 0 0)
(-0.00314617 0 0)
(-0.00314668 0 0)
(-0.00314719 0 0)
(-0.0031477 0 0)
(-0.00314822 0 0)
(-0.00314873 0 0)
(-0.00314924 0 0)
(-0.00314975 0 0)
(-0.00315026 0 0)
(-0.00315077 0 0)
(-0.00315128 0 0)
(-0.00315179 0 0)
(-0.00315231 0 0)
(-0.00315282 0 0)
(-0.00315333 0 0)
(-0.00315384 0 0)
(-0.00315435 0 0)
(-0.00315486 0 0)
(-0.00315537 0 0)
(-0.00315588 0 0)
(-0.00315639 0 0)
(-0.0031569 0 0)
(-0.00315741 0 0)
(-0.00315792 0 0)
(-0.00315843 0 0)
(-0.00315894 0 0)
(-0.00315945 0 0)
(-0.00315996 0 0)
(-0.00316047 0 0)
(-0.00316099 0 0)
(-0.0031615 0 0)
(-0.00316201 0 0)
(-0.00316252 0 0)
(-0.00316303 0 0)
(-0.00316354 0 0)
(-0.00316405 0 0)
(-0.00316457 0 0)
(-0.00316508 0 0)
(-0.00316559 0 0)
(-0.0031661 0 0)
(-0.00316662 0 0)
(-0.00316713 0 0)
(-0.00316764 0 0)
(-0.00316816 0 0)
(-0.00316867 0 0)
(-0.00316918 0 0)
(-0.0031697 0 0)
(-0.00317021 0 0)
(-0.00317073 0 0)
(-0.00317124 0 0)
(-0.00317176 0 0)
(-0.00317227 0 0)
(-0.00317279 0 0)
(-0.0031733 0 0)
(-0.00317382 0 0)
(-0.00317434 0 0)
(-0.00317485 0 0)
(-0.00317537 0 0)
(-0.00317589 0 0)
(-0.0031764 0 0)
(-0.00317692 0 0)
(-0.00317744 0 0)
(-0.00317796 0 0)
(-0.00317847 0 0)
(-0.00317899 0 0)
(-0.00317951 0 0)
(-0.00318003 0 0)
(-0.00318054 0 0)
(-0.00318106 0 0)
(-0.00318158 0 0)
(-0.0031821 0 0)
(-0.00318261 0 0)
(-0.00318313 0 0)
(-0.00318365 0 0)
(-0.00318417 0 0)
(-0.00318469 0 0)
(-0.0031852 0 0)
(-0.00318572 0 0)
(-0.00318624 0 0)
(-0.00318676 0 0)
(-0.00318727 0 0)
(-0.00318779 0 0)
(-0.00318831 0 0)
(-0.00318883 0 0)
(-0.00318935 0 0)
(-0.00318986 0 0)
(-0.00319038 0 0)
(-0.00319089 0 0)
(-0.00319141 0 0)
(-0.00319193 0 0)
(-0.00319244 0 0)
(-0.00319296 0 0)
(-0.00319348 0 0)
(-0.00319399 0 0)
(-0.00319451 0 0)
(-0.00319503 0 0)
(-0.00319554 0 0)
(-0.00319606 0 0)
(-0.00319658 0 0)
(-0.00319709 0 0)
(-0.00319761 0 0)
(-0.00319813 0 0)
(-0.00319864 0 0)
(-0.00319916 0 0)
(-0.00319968 0 0)
(-0.0032002 0 0)
(-0.00320071 0 0)
(-0.00320123 0 0)
(-0.00320175 0 0)
(-0.00320227 0 0)
(-0.00320278 0 0)
(-0.0032033 0 0)
(-0.00320382 0 0)
(-0.00320434 0 0)
(-0.00320486 0 0)
(-0.00320538 0 0)
(-0.0032059 0 0)
(-0.00320642 0 0)
(-0.00320694 0 0)
(-0.00320746 0 0)
(-0.00320798 0 0)
(-0.00320851 0 0)
(-0.00320903 0 0)
(-0.00320955 0 0)
(-0.00321007 0 0)
(-0.0032106 0 0)
(-0.00321112 0 0)
(-0.00321165 0 0)
(-0.00321217 0 0)
(-0.0032127 0 0)
(-0.00321322 0 0)
(-0.00321375 0 0)
(-0.00321428 0 0)
(-0.00321481 0 0)
(-0.00321533 0 0)
(-0.00321586 0 0)
(-0.00321639 0 0)
(-0.00321692 0 0)
(-0.00321745 0 0)
(-0.00321798 0 0)
(-0.00321852 0 0)
(-0.00321905 0 0)
(-0.00321958 0 0)
(-0.00322012 0 0)
(-0.00322065 0 0)
(-0.00322119 0 0)
(-0.00322172 0 0)
(-0.00322226 0 0)
(-0.0032228 0 0)
(-0.00322333 0 0)
(-0.00322387 0 0)
(-0.00322441 0 0)
(-0.00322495 0 0)
(-0.00322549 0 0)
(-0.00322604 0 0)
(-0.00322658 0 0)
(-0.00322712 0 0)
(-0.00322766 0 0)
(-0.0032282 0 0)
(-0.00322875 0 0)
(-0.00322929 0 0)
(-0.00322983 0 0)
(-0.00323038 0 0)
(-0.00323092 0 0)
(-0.00323146 0 0)
(-0.003232 0 0)
(-0.00323255 0 0)
(-0.00323309 0 0)
(-0.00323363 0 0)
(-0.00323416 0 0)
(-0.0032347 0 0)
(-0.00323524 0 0)
(-0.00323577 0 0)
(-0.0032363 0 0)
(-0.00323683 0 0)
(-0.00323736 0 0)
(-0.00323788 0 0)
(-0.00323841 0 0)
(-0.00323893 0 0)
(-0.00323945 0 0)
(-0.00323996 0 0)
(-0.00324047 0 0)
(-0.00324098 0 0)
(-0.00324149 0 0)
(-0.00324199 0 0)
(-0.0032425 0 0)
(-0.003243 0 0)
(-0.00324349 0 0)
(-0.00324399 0 0)
(-0.00324448 0 0)
(-0.00324497 0 0)
(-0.00324546 0 0)
(-0.00324595 0 0)
(-0.00324644 0 0)
(-0.00324693 0 0)
(-0.00324741 0 0)
(-0.0032479 0 0)
(-0.00324838 0 0)
(-0.00324887 0 0)
(-0.00324936 0 0)
(-0.00324984 0 0)
(-0.00325033 0 0)
(-0.00325082 0 0)
(-0.00325132 0 0)
(-0.00325181 0 0)
(-0.0032523 0 0)
(-0.0032528 0 0)
(-0.0032533 0 0)
(-0.00325381 0 0)
(-0.00325431 0 0)
(-0.00325482 0 0)
(-0.00325533 0 0)
(-0.00325585 0 0)
(-0.00325637 0 0)
(-0.00325689 0 0)
(-0.00325741 0 0)
(-0.00325794 0 0)
(-0.00325847 0 0)
(-0.00325901 0 0)
(-0.00325955 0 0)
(-0.00326009 0 0)
(-0.00326063 0 0)
(-0.00326118 0 0)
(-0.00326173 0 0)
(-0.00326228 0 0)
(-0.00326283 0 0)
(-0.00326338 0 0)
(-0.00326394 0 0)
(-0.0032645 0 0)
(-0.00326506 0 0)
(-0.00326561 0 0)
(-0.00326618 0 0)
(-0.00326673 0 0)
(-0.00326729 0 0)
(-0.00326784 0 0)
(-0.0032684 0 0)
(-0.00326895 0 0)
(-0.0032695 0 0)
(-0.00327004 0 0)
(-0.00327058 0 0)
(-0.00327112 0 0)
(-0.00327165 0 0)
(-0.00327218 0 0)
(-0.0032727 0 0)
(-0.00327322 0 0)
(-0.00327373 0 0)
(-0.00327423 0 0)
(-0.00327474 0 0)
(-0.00327524 0 0)
(-0.00327573 0 0)
(-0.00327622 0 0)
(-0.0032767 0 0)
(-0.00327718 0 0)
(-0.00327766 0 0)
(-0.00327814 0 0)
(-0.00327862 0 0)
(-0.00327909 0 0)
(-0.00327957 0 0)
(-0.00328005 0 0)
(-0.00328053 0 0)
(-0.00328102 0 0)
(-0.00328151 0 0)
(-0.00328201 0 0)
(-0.00328251 0 0)
(-0.00328301 0 0)
(-0.00328353 0 0)
(-0.00328404 0 0)
(-0.00328456 0 0)
(-0.00328509 0 0)
(-0.00328562 0 0)
(-0.00328616 0 0)
(-0.0032867 0 0)
(-0.00328724 0 0)
(-0.00328778 0 0)
(-0.00328832 0 0)
(-0.00328886 0 0)
(-0.00328939 0 0)
(-0.00328992 0 0)
(-0.00329044 0 0)
(-0.00329095 0 0)
(-0.00329146 0 0)
(-0.00329195 0 0)
(-0.00329243 0 0)
(-0.00329291 0 0)
(-0.00329337 0 0)
(-0.00329383 0 0)
(-0.00329426 0 0)
(-0.0032947 0 0)
(-0.0032951 0 0)
(-0.0032955 0 0)
(-0.00329599 0 0)
(-0.00329635 0 0)
(-0.00329677 0 0)
(-0.00329718 0 0)
(-0.00329757 0 0)
(-0.00329804 0 0)
(-0.00329845 0 0)
(-0.0032989 0 0)
(-0.00329935 0 0)
(-0.00329983 0 0)
(-0.00330032 0 0)
(-0.00330082 0 0)
(-0.00330135 0 0)
(-0.00330188 0 0)
(-0.00330244 0 0)
(-0.003303 0 0)
(-0.00330358 0 0)
(-0.00330417 0 0)
(-0.00330474 0 0)
(-0.00330536 0 0)
(-0.0033059 0 0)
(-0.00330645 0 0)
(-0.00330704 0 0)
(-0.00330753 0 0)
(-0.00330799 0 0)
(-0.00330848 0 0)
(-0.00330891 0 0)
(-0.00330926 0 0)
(-0.00330963 0 0)
(-0.00330994 0 0)
(-0.00331023 0 0)
(-0.0033105 0 0)
(-0.00331077 0 0)
(-0.00331104 0 0)
(-0.00331131 0 0)
(-0.00331162 0 0)
(-0.00331195 0 0)
(-0.00331228 0 0)
(-0.00331267 0 0)
(-0.00331313 0 0)
(-0.00331354 0 0)
(-0.00331403 0 0)
(-0.00331445 0 0)
(-0.00331491 0 0)
(-0.00331534 0 0)
(-0.00331565 0 0)
(-0.00331592 0 0)
(-0.00331613 0 0)
(-0.00331621 0 0)
(-0.00331623 0 0)
(-0.00331617 0 0)
(-0.00331599 0 0)
(-0.00331581 0 0)
(-0.00331549 0 0)
(-0.00331508 0 0)
(-0.00331456 0 0)
(-0.00331388 0 0)
(-0.003313 0 0)
(-0.00331189 0 0)
(-0.00331046 0 0)
(-0.00330869 0 0)
(-0.0033065 0 0)
(-0.00330385 0 0)
(-0.0033007 0 0)
(-0.00329693 0 0)
(-0.00329244 0 0)
(-0.00328716 0 0)
(-0.0032812 0 0)
(-0.00327443 0 0)
(-0.00326607 0 0)
(-0.00325212 0 0)
(-0.00323611 0 0)
(-0.00320035 0 0)
(-0.0031853 0 0)
(-0.00326784 0 0)
(-0.00323699 0 0)
(-0.00468761 0 0)
(-0.00264444 0 0)
(0.0215837 0 0)
(0.0592689 0 0)
(0.0840429 0 0)
(0.0961331 0 0)
(0.101779 0 0)
(0.104324 0 0)
(0.105472 0 0)
(0.106014 0 0)
(0.106275 0 0)
(0.106425 0 0)
(0.106485 0 0)
(0.106538 0 0)
(0.106544 0 0)
(0.106566 0 0)
(0.10657 0 0)
(0.106559 0 0)
(0.106571 0 0)
(0.10657 0 0)
(0.10657 0 0)
(0.106566 0 0)
(0.106569 0 0)
(0.106578 0 0)
(0.106557 0 0)
(0.106567 0 0)
(0.106573 0 0)
(0.106561 0 0)
(0.106571 0 0)
(0.106563 0 0)
(0.106559 0 0)
(0.106566 0 0)
(0.106564 0 0)
(0.106565 0 0)
(0.10656 0 0)
(0.106561 0 0)
(0.106559 0 0)
(0.106564 0 0)
(0.106562 0 0)
(0.10656 0 0)
(0.106554 0 0)
(0.106561 0 0)
(0.106568 0 0)
(0.10655 0 0)
(0.106553 0 0)
(0.106572 0 0)
(0.106549 0 0)
(0.106551 0 0)
(0.106565 0 0)
(0.106544 0 0)
(0.106561 0 0)
(0.106561 0 0)
(0.106539 0 0)
(0.106553 0 0)
(0.106568 0 0)
(0.106544 0 0)
(0.106548 0 0)
(0.106552 0 0)
(0.106553 0 0)
(0.106557 0 0)
(0.106542 0 0)
(0.106544 0 0)
(0.106564 0 0)
(0.106537 0 0)
(0.106552 0 0)
(0.106557 0 0)
(0.106529 0 0)
(0.106558 0 0)
(0.106555 0 0)
(0.106534 0 0)
(0.106545 0 0)
(0.106546 0 0)
(0.106545 0 0)
(0.106551 0 0)
(0.106533 0 0)
(0.106544 0 0)
(0.106543 0 0)
(0.106543 0 0)
(0.106554 0 0)
(0.106534 0 0)
(0.106522 0 0)
(0.10655 0 0)
(0.106544 0 0)
(0.10653 0 0)
(0.106544 0 0)
(0.106544 0 0)
(0.106534 0 0)
(0.106528 0 0)
(0.106543 0 0)
(0.106535 0 0)
(0.106537 0 0)
(0.106542 0 0)
(0.106526 0 0)
(0.106532 0 0)
(0.106551 0 0)
(0.106523 0 0)
(0.106531 0 0)
(0.106548 0 0)
(0.106517 0 0)
(0.10654 0 0)
(0.106535 0 0)
(0.106534 0 0)
(0.10652 0 0)
(0.106527 0 0)
(0.106547 0 0)
(0.106521 0 0)
(0.106525 0 0)
(0.106544 0 0)
(0.106524 0 0)
(0.106519 0 0)
(0.106535 0 0)
(0.106535 0 0)
(0.106518 0 0)
(0.106522 0 0)
(0.106534 0 0)
(0.106519 0 0)
(0.106535 0 0)
(0.106514 0 0)
(0.106532 0 0)
(0.106529 0 0)
(0.106512 0 0)
(0.106538 0 0)
(0.106523 0 0)
(0.106506 0 0)
(0.106536 0 0)
(0.106526 0 0)
(0.106509 0 0)
(0.106526 0 0)
(0.106517 0 0)
(0.106526 0 0)
(0.106525 0 0)
(0.106509 0 0)
(0.10652 0 0)
(0.106521 0 0)
(0.106522 0 0)
(0.10651 0 0)
(0.106527 0 0)
(0.106521 0 0)
(0.106499 0 0)
(0.106533 0 0)
(0.106523 0 0)
(0.106499 0 0)
(0.106527 0 0)
(0.10651 0 0)
(0.106516 0 0)
(0.106521 0 0)
(0.106506 0 0)
(0.106512 0 0)
(0.106524 0 0)
(0.106505 0 0)
(0.106511 0 0)
(0.106525 0 0)
(0.106502 0 0)
(0.106512 0 0)
(0.106513 0 0)
(0.106513 0 0)
(0.10651 0 0)
(0.10651 0 0)
(0.106514 0 0)
(0.106503 0 0)
(0.106509 0 0)
(0.106525 0 0)
(0.106495 0 0)
(0.106514 0 0)
(0.106518 0 0)
(0.106491 0 0)
(0.106517 0 0)
(0.106516 0 0)
(0.106492 0 0)
(0.106516 0 0)
(0.106513 0 0)
(0.10649 0 0)
(0.106516 0 0)
(0.106512 0 0)
(0.106495 0 0)
(0.106506 0 0)
(0.106516 0 0)
(0.106499 0 0)
(0.106495 0 0)
(0.106511 0 0)
(0.106506 0 0)
(0.106497 0 0)
(0.106505 0 0)
(0.10651 0 0)
(0.106495 0 0)
(0.106501 0 0)
(0.106504 0 0)
(0.106505 0 0)
(0.106501 0 0)
(0.1065 0 0)
(0.106495 0 0)
(0.106501 0 0)
(0.106509 0 0)
(0.106492 0 0)
(0.106501 0 0)
(0.106501 0 0)
(0.1065 0 0)
(0.106495 0 0)
(0.1065 0 0)
(0.106506 0 0)
(0.106488 0 0)
(0.1065 0 0)
(0.106513 0 0)
(0.106481 0 0)
(0.106499 0 0)
(0.106506 0 0)
(0.106488 0 0)
(0.1065 0 0)
(0.106494 0 0)
(0.106496 0 0)
(0.106502 0 0)
(0.106485 0 0)
(0.1065 0 0)
(0.106504 0 0)
(0.106479 0 0)
(0.106502 0 0)
(0.106494 0 0)
(0.106491 0 0)
(0.106499 0 0)
(0.106492 0 0)
(0.106482 0 0)
(0.106496 0 0)
(0.106504 0 0)
(0.106483 0 0)
(0.106494 0 0)
(0.106492 0 0)
(0.106495 0 0)
(0.106484 0 0)
(0.106499 0 0)
(0.106493 0 0)
(0.106474 0 0)
(0.106506 0 0)
(0.106495 0 0)
(0.106472 0 0)
(0.106502 0 0)
(0.106496 0 0)
(0.106471 0 0)
(0.106504 0 0)
(0.106494 0 0)
(0.106469 0 0)
(0.106506 0 0)
(0.106492 0 0)
(0.106471 0 0)
(0.106499 0 0)
(0.106493 0 0)
(0.106478 0 0)
(0.106489 0 0)
(0.106486 0 0)
(0.106493 0 0)
(0.106492 0 0)
(0.106468 0 0)
(0.106494 0 0)
(0.106496 0 0)
(0.10647 0 0)
(0.106495 0 0)
(0.106493 0 0)
(0.106477 0 0)
(0.106485 0 0)
(0.106497 0 0)
(0.106478 0 0)
(0.106478 0 0)
(0.106496 0 0)
(0.106471 0 0)
(0.106489 0 0)
(0.106492 0 0)
(0.106474 0 0)
(0.106481 0 0)
(0.106498 0 0)
(0.106475 0 0)
(0.106474 0 0)
(0.106491 0 0)
(0.106479 0 0)
(0.106486 0 0)
(0.106478 0 0)
(0.106491 0 0)
(0.106484 0 0)
(0.106462 0 0)
(0.106495 0 0)
(0.106484 0 0)
(0.106487 0 0)
(0.106468 0 0)
(0.106476 0 0)
(0.106496 0 0)
(0.10647 0 0)
(0.106489 0 0)
(0.106477 0 0)
(0.106481 0 0)
(0.106488 0 0)
(0.106472 0 0)
(0.106478 0 0)
(0.106484 0 0)
(0.106482 0 0)
(0.106486 0 0)
(0.106471 0 0)
(0.106474 0 0)
(0.106494 0 0)
(0.106472 0 0)
(0.106472 0 0)
(0.106484 0 0)
(0.106484 0 0)
(0.106482 0 0)
(0.106472 0 0)
(0.106475 0 0)
(0.10649 0 0)
(0.106468 0 0)
(0.106483 0 0)
(0.106483 0 0)
(0.106466 0 0)
(0.106489 0 0)
(0.106472 0 0)
(0.106484 0 0)
(0.106473 0 0)
(0.10647 0 0)
(0.10649 0 0)
(0.106471 0 0)
(0.106474 0 0)
(0.106486 0 0)
(0.106486 0 0)
(0.10646 0 0)
(0.106467 0 0)
(0.106496 0 0)
(0.106468 0 0)
(0.106481 0 0)
(0.10648 0 0)
(0.10647 0 0)
(0.106478 0 0)
(0.106472 0 0)
(0.106485 0 0)
(0.106479 0 0)
(0.106461 0 0)
(0.106488 0 0)
(0.106473 0 0)
(0.106473 0 0)
(0.106484 0 0)
(0.106475 0 0)
(0.106461 0 0)
(0.106483 0 0)
(0.106484 0 0)
(0.106464 0 0)
(0.106481 0 0)
(0.106474 0 0)
(0.106476 0 0)
(0.106481 0 0)
(0.106465 0 0)
(0.106478 0 0)
(0.106484 0 0)
(0.106465 0 0)
(0.106479 0 0)
(0.106474 0 0)
(0.106473 0 0)
(0.106479 0 0)
(0.106475 0 0)
(0.106469 0 0)
(0.106479 0 0)
(0.106481 0 0)
(0.106464 0 0)
(0.106479 0 0)
(0.106485 0 0)
(0.106457 0 0)
(0.106485 0 0)
(0.106482 0 0)
(0.106458 0 0)
(0.106485 0 0)
(0.106481 0 0)
(0.106464 0 0)
(0.106475 0 0)
(0.106483 0 0)
(0.10646 0 0)
(0.106484 0 0)
(0.106477 0 0)
(0.106464 0 0)
(0.106483 0 0)
(0.106468 0 0)
(0.106477 0 0)
(0.106482 0 0)
(0.106465 0 0)
(0.106472 0 0)
(0.106474 0 0)
(0.106483 0 0)
(0.106475 0 0)
(0.106475 0 0)
)
;

boundaryField
{
    fixedWall
    {
        type            fixedValue;
        value           uniform (0 0 0);
    }
    outlet
    {
        type            pressureInletOutletVelocity;
        value           uniform (0.106475 0 0);
    }
    defaultFaces
    {
        type            empty;
    }
}


// ************************************************************************* //
