/*--------------------------------*- C++ -*----------------------------------*\
| =========                 |                                                 |
| \\      /  F ield         | OpenFOAM: The Open Source CFD Toolbox           |
|  \\    /   O peration     | Version:  2406                                  |
|   \\  /    A nd           | Website:  www.openfoam.com                      |
|    \\/     M anipulation  |                                                 |
\*---------------------------------------------------------------------------*/
FoamFile
{
    version     2.0;
    format      ascii;
    arch        "LSB;label=32;scalar=64";
    class       surfaceScalarField;
    location    "12.8";
    object      phi;
}
// * * * * * * * * * * * * * * * * * * * * * * * * * * * * * * * * * * * * * //

dimensions      [1 0 -1 0 0 0 0];

oriented        oriented;

internalField   nonuniform List<scalar> 
999
(
-1.26599e-08
-4.28895e-08
-8.46318e-08
-1.3409e-07
-1.88765e-07
-2.46973e-07
-3.07536e-07
-3.69629e-07
-4.32644e-07
-4.96147e-07
-5.59815e-07
-6.23403e-07
-6.86729e-07
-7.49656e-07
-8.12082e-07
-8.73928e-07
-9.35135e-07
-9.9566e-07
-1.05548e-06
-1.11455e-06
-1.17288e-06
-1.23045e-06
-1.28725e-06
-1.34328e-06
-1.39853e-06
-1.45302e-06
-1.50675e-06
-1.55972e-06
-1.61193e-06
-1.66339e-06
-1.71412e-06
-1.76412e-06
-1.81339e-06
-1.86194e-06
-1.90979e-06
-1.95693e-06
-2.00339e-06
-2.04916e-06
-2.09426e-06
-2.13869e-06
-2.18246e-06
-2.22559e-06
-2.26807e-06
-2.30992e-06
-2.35114e-06
-2.39174e-06
-2.43172e-06
-2.4711e-06
-2.50989e-06
-2.54808e-06
-2.58568e-06
-2.62271e-06
-2.65917e-06
-2.69506e-06
-2.73039e-06
-2.76517e-06
-2.7994e-06
-2.8331e-06
-2.86626e-06
-2.89888e-06
-2.93099e-06
-2.96258e-06
-2.99365e-06
-3.02423e-06
-3.0543e-06
-3.08387e-06
-3.11296e-06
-3.14156e-06
-3.16968e-06
-3.19732e-06
-3.2245e-06
-3.25121e-06
-3.27746e-06
-3.30326e-06
-3.32861e-06
-3.35352e-06
-3.37799e-06
-3.40202e-06
-3.42562e-06
-3.4488e-06
-3.47156e-06
-3.4939e-06
-3.51584e-06
-3.53736e-06
-3.55849e-06
-3.57922e-06
-3.59956e-06
-3.61951e-06
-3.63908e-06
-3.65827e-06
-3.67709e-06
-3.69554e-06
-3.71363e-06
-3.73136e-06
-3.74873e-06
-3.76575e-06
-3.78243e-06
-3.79877e-06
-3.81477e-06
-3.83043e-06
-3.84577e-06
-3.86079e-06
-3.87549e-06
-3.88987e-06
-3.90394e-06
-3.91771e-06
-3.93118e-06
-3.94435e-06
-3.95722e-06
-3.96982e-06
-3.98212e-06
-3.99415e-06
-4.0059e-06
-4.01738e-06
-4.0286e-06
-4.03955e-06
-4.05025e-06
-4.06069e-06
-4.07088e-06
-4.08083e-06
-4.09054e-06
-4.1e-06
-4.10924e-06
-4.11825e-06
-4.12703e-06
-4.13559e-06
-4.14393e-06
-4.15207e-06
-4.15999e-06
-4.16771e-06
-4.17522e-06
-4.18254e-06
-4.18967e-06
-4.19661e-06
-4.20336e-06
-4.20993e-06
-4.21632e-06
-4.22253e-06
-4.22858e-06
-4.23446e-06
-4.24017e-06
-4.24572e-06
-4.25112e-06
-4.25636e-06
-4.26145e-06
-4.26639e-06
-4.27119e-06
-4.27585e-06
-4.28037e-06
-4.28476e-06
-4.28901e-06
-4.29314e-06
-4.29714e-06
-4.30102e-06
-4.30478e-06
-4.30843e-06
-4.31196e-06
-4.31539e-06
-4.3187e-06
-4.32191e-06
-4.32502e-06
-4.32803e-06
-4.33094e-06
-4.33375e-06
-4.33647e-06
-4.3391e-06
-4.34164e-06
-4.3441e-06
-4.34646e-06
-4.34877e-06
-4.35101e-06
-4.35317e-06
-4.35526e-06
-4.35728e-06
-4.35921e-06
-4.36108e-06
-4.36287e-06
-4.3646e-06
-4.36627e-06
-4.36788e-06
-4.36943e-06
-4.37093e-06
-4.37237e-06
-4.37377e-06
-4.37511e-06
-4.3764e-06
-4.37765e-06
-4.37886e-06
-4.38001e-06
-4.38112e-06
-4.38219e-06
-4.38322e-06
-4.3842e-06
-4.38515e-06
-4.38606e-06
-4.38693e-06
-4.38777e-06
-4.38858e-06
-4.38935e-06
-4.3901e-06
-4.39082e-06
-4.39151e-06
-4.39217e-06
-4.3928e-06
-4.39341e-06
-4.39399e-06
-4.39455e-06
-4.39509e-06
-4.3956e-06
-4.39609e-06
-4.39656e-06
-4.39701e-06
-4.39745e-06
-4.39786e-06
-4.39826e-06
-4.39864e-06
-4.399e-06
-4.39935e-06
-4.39968e-06
-4.4e-06
-4.4003e-06
-4.40059e-06
-4.40086e-06
-4.40113e-06
-4.40138e-06
-4.40162e-06
-4.40185e-06
-4.40206e-06
-4.40227e-06
-4.40247e-06
-4.40266e-06
-4.40284e-06
-4.40301e-06
-4.40317e-06
-4.40333e-06
-4.40348e-06
-4.40362e-06
-4.40375e-06
-4.40388e-06
-4.404e-06
-4.40412e-06
-4.40423e-06
-4.40433e-06
-4.40443e-06
-4.40452e-06
-4.40461e-06
-4.4047e-06
-4.40478e-06
-4.40485e-06
-4.40492e-06
-4.40499e-06
-4.40505e-06
-4.40512e-06
-4.40517e-06
-4.40523e-06
-4.40528e-06
-4.40532e-06
-4.40537e-06
-4.40541e-06
-4.40545e-06
-4.40549e-06
-4.40553e-06
-4.40556e-06
-4.40559e-06
-4.40562e-06
-4.40565e-06
-4.40567e-06
-4.40569e-06
-4.40572e-06
-4.40574e-06
-4.40576e-06
-4.40578e-06
-4.40579e-06
-4.40581e-06
-4.40582e-06
-4.40583e-06
-4.40585e-06
-4.40586e-06
-4.40587e-06
-4.40588e-06
-4.40589e-06
-4.40589e-06
-4.4059e-06
-4.40591e-06
-4.40591e-06
-4.40591e-06
-4.40592e-06
-4.40592e-06
-4.40593e-06
-4.40593e-06
-4.40593e-06
-4.40593e-06
-4.40593e-06
-4.40593e-06
-4.40593e-06
-4.40593e-06
-4.40593e-06
-4.40593e-06
-4.40593e-06
-4.40593e-06
-4.40593e-06
-4.40593e-06
-4.40593e-06
-4.40593e-06
-4.40592e-06
-4.40592e-06
-4.40592e-06
-4.40592e-06
-4.40591e-06
-4.40591e-06
-4.40591e-06
-4.40591e-06
-4.4059e-06
-4.4059e-06
-4.4059e-06
-4.40589e-06
-4.40589e-06
-4.40589e-06
-4.40589e-06
-4.40588e-06
-4.40588e-06
-4.40588e-06
-4.40587e-06
-4.40587e-06
-4.40587e-06
-4.40587e-06
-4.40586e-06
-4.40586e-06
-4.40586e-06
-4.40586e-06
-4.40585e-06
-4.40585e-06
-4.40585e-06
-4.40585e-06
-4.40584e-06
-4.40584e-06
-4.40584e-06
-4.40584e-06
-4.40583e-06
-4.40583e-06
-4.40583e-06
-4.40583e-06
-4.40583e-06
-4.40582e-06
-4.40582e-06
-4.40582e-06
-4.40582e-06
-4.40582e-06
-4.40582e-06
-4.40582e-06
-4.40581e-06
-4.40581e-06
-4.40581e-06
-4.40581e-06
-4.40581e-06
-4.40581e-06
-4.40581e-06
-4.4058e-06
-4.4058e-06
-4.4058e-06
-4.4058e-06
-4.4058e-06
-4.4058e-06
-4.4058e-06
-4.4058e-06
-4.4058e-06
-4.4058e-06
-4.40579e-06
-4.40579e-06
-4.40579e-06
-4.40579e-06
-4.40579e-06
-4.40579e-06
-4.40579e-06
-4.40579e-06
-4.40579e-06
-4.40579e-06
-4.40579e-06
-4.40579e-06
-4.40579e-06
-4.40579e-06
-4.40579e-06
-4.40579e-06
-4.40579e-06
-4.40579e-06
-4.40579e-06
-4.40579e-06
-4.40579e-06
-4.40579e-06
-4.4058e-06
-4.4058e-06
-4.4058e-06
-4.4058e-06
-4.4058e-06
-4.4058e-06
-4.4058e-06
-4.4058e-06
-4.4058e-06
-4.4058e-06
-4.4058e-06
-4.4058e-06
-4.4058e-06
-4.4058e-06
-4.4058e-06
-4.4058e-06
-4.40581e-06
-4.40581e-06
-4.40581e-06
-4.40581e-06
-4.40581e-06
-4.40581e-06
-4.40581e-06
-4.40581e-06
-4.40581e-06
-4.40581e-06
-4.40581e-06
-4.40581e-06
-4.40581e-06
-4.40581e-06
-4.40581e-06
-4.40581e-06
-4.40581e-06
-4.40581e-06
-4.40581e-06
-4.40581e-06
-4.40582e-06
-4.40582e-06
-4.40582e-06
-4.40582e-06
-4.40582e-06
-4.40582e-06
-4.40582e-06
-4.40582e-06
-4.40582e-06
-4.40582e-06
-4.40582e-06
-4.40582e-06
-4.40582e-06
-4.40582e-06
-4.40582e-06
-4.40582e-06
-4.40582e-06
-4.40582e-06
-4.40582e-06
-4.40582e-06
-4.40582e-06
-4.40582e-06
-4.40582e-06
-4.40582e-06
-4.40582e-06
-4.40582e-06
-4.40582e-06
-4.40582e-06
-4.40582e-06
-4.40582e-06
-4.40582e-06
-4.40582e-06
-4.40582e-06
-4.40582e-06
-4.40582e-06
-4.40582e-06
-4.40582e-06
-4.40582e-06
-4.40582e-06
-4.40582e-06
-4.40582e-06
-4.40582e-06
-4.40582e-06
-4.40582e-06
-4.40582e-06
-4.40582e-06
-4.40582e-06
-4.40582e-06
-4.40582e-06
-4.40582e-06
-4.40582e-06
-4.40582e-06
-4.40582e-06
-4.40582e-06
-4.40582e-06
-4.40582e-06
-4.40582e-06
-4.40582e-06
-4.40582e-06
-4.40582e-06
-4.40582e-06
-4.40582e-06
-4.40582e-06
-4.40582e-06
-4.40582e-06
-4.40582e-06
-4.40582e-06
-4.40582e-06
-4.40582e-06
-4.40582e-06
-4.40581e-06
-4.40581e-06
-4.40581e-06
-4.40581e-06
-4.40581e-06
-4.40581e-06
-4.40581e-06
-4.40581e-06
-4.40581e-06
-4.40581e-06
-4.40581e-06
-4.40581e-06
-4.40581e-06
-4.40581e-06
-4.40581e-06
-4.40581e-06
-4.40581e-06
-4.40581e-06
-4.40581e-06
-4.40581e-06
-4.40581e-06
-4.40581e-06
-4.40581e-06
-4.40581e-06
-4.40581e-06
-4.40581e-06
-4.40581e-06
-4.40581e-06
-4.40581e-06
-4.40581e-06
-4.40581e-06
-4.40581e-06
-4.40581e-06
-4.40581e-06
-4.40581e-06
-4.40581e-06
-4.40581e-06
-4.40581e-06
-4.4058e-06
-4.40581e-06
-4.4058e-06
-4.4058e-06
-4.4058e-06
-4.4058e-06
-4.4058e-06
-4.4058e-06
-4.4058e-06
-4.4058e-06
-4.4058e-06
-4.4058e-06
-4.4058e-06
-4.4058e-06
-4.4058e-06
-4.4058e-06
-4.4058e-06
-4.4058e-06
-4.4058e-06
-4.4058e-06
-4.4058e-06
-4.4058e-06
-4.40579e-06
-4.40579e-06
-4.40579e-06
-4.40579e-06
-4.40579e-06
-4.40579e-06
-4.40579e-06
-4.40579e-06
-4.40579e-06
-4.40579e-06
-4.40579e-06
-4.40579e-06
-4.40579e-06
-4.40579e-06
-4.40579e-06
-4.40579e-06
-4.40579e-06
-4.40579e-06
-4.40579e-06
-4.40578e-06
-4.40578e-06
-4.40578e-06
-4.40578e-06
-4.40578e-06
-4.40578e-06
-4.40578e-06
-4.40578e-06
-4.40578e-06
-4.40578e-06
-4.40578e-06
-4.40578e-06
-4.40578e-06
-4.40578e-06
-4.40578e-06
-4.40578e-06
-4.40578e-06
-4.40578e-06
-4.40578e-06
-4.40578e-06
-4.40578e-06
-4.40578e-06
-4.40578e-06
-4.40578e-06
-4.40578e-06
-4.40578e-06
-4.40578e-06
-4.40578e-06
-4.40578e-06
-4.40578e-06
-4.40578e-06
-4.40578e-06
-4.40578e-06
-4.40578e-06
-4.40578e-06
-4.40578e-06
-4.40578e-06
-4.40578e-06
-4.40578e-06
-4.40578e-06
-4.40578e-06
-4.40578e-06
-4.40578e-06
-4.40578e-06
-4.40578e-06
-4.40579e-06
-4.40579e-06
-4.40579e-06
-4.40579e-06
-4.40579e-06
-4.40579e-06
-4.40579e-06
-4.40579e-06
-4.40579e-06
-4.40579e-06
-4.40579e-06
-4.40579e-06
-4.40579e-06
-4.40579e-06
-4.40579e-06
-4.40579e-06
-4.40579e-06
-4.40579e-06
-4.40579e-06
-4.40579e-06
-4.40579e-06
-4.40579e-06
-4.40579e-06
-4.40578e-06
-4.40578e-06
-4.40578e-06
-4.40578e-06
-4.40578e-06
-4.40578e-06
-4.40578e-06
-4.40578e-06
-4.40578e-06
-4.40578e-06
-4.40578e-06
-4.40578e-06
-4.40578e-06
-4.40578e-06
-4.40578e-06
-4.40578e-06
-4.40577e-06
-4.40577e-06
-4.40577e-06
-4.40577e-06
-4.40577e-06
-4.40577e-06
-4.40577e-06
-4.40577e-06
-4.40577e-06
-4.40577e-06
-4.40576e-06
-4.40576e-06
-4.40576e-06
-4.40576e-06
-4.40576e-06
-4.40576e-06
-4.40576e-06
-4.40575e-06
-4.40575e-06
-4.40575e-06
-4.40575e-06
-4.40575e-06
-4.40575e-06
-4.40575e-06
-4.40575e-06
-4.40575e-06
-4.40574e-06
-4.40574e-06
-4.40574e-06
-4.40574e-06
-4.40574e-06
-4.40574e-06
-4.40574e-06
-4.40574e-06
-4.40574e-06
-4.40574e-06
-4.40574e-06
-4.40574e-06
-4.40573e-06
-4.40573e-06
-4.40573e-06
-4.40573e-06
-4.40573e-06
-4.40573e-06
-4.40573e-06
-4.40573e-06
-4.40573e-06
-4.40573e-06
-4.40573e-06
-4.40573e-06
-4.40573e-06
-4.40573e-06
-4.40573e-06
-4.40574e-06
-4.40574e-06
-4.40574e-06
-4.40574e-06
-4.40574e-06
-4.40574e-06
-4.40575e-06
-4.40575e-06
-4.40575e-06
-4.40575e-06
-4.40575e-06
-4.40576e-06
-4.40576e-06
-4.40576e-06
-4.40576e-06
-4.40577e-06
-4.40577e-06
-4.40578e-06
-4.40578e-06
-4.40579e-06
-4.40579e-06
-4.4058e-06
-4.4058e-06
-4.40581e-06
-4.40582e-06
-4.40583e-06
-4.40584e-06
-4.40585e-06
-4.40586e-06
-4.40587e-06
-4.40588e-06
-4.40589e-06
-4.40591e-06
-4.40592e-06
-4.40594e-06
-4.40596e-06
-4.40597e-06
-4.40599e-06
-4.40601e-06
-4.40604e-06
-4.40606e-06
-4.40609e-06
-4.40612e-06
-4.40615e-06
-4.40618e-06
-4.40622e-06
-4.40625e-06
-4.4063e-06
-4.40634e-06
-4.40639e-06
-4.40644e-06
-4.40649e-06
-4.40655e-06
-4.40661e-06
-4.40668e-06
-4.40675e-06
-4.40682e-06
-4.4069e-06
-4.40699e-06
-4.40708e-06
-4.40718e-06
-4.40729e-06
-4.4074e-06
-4.40752e-06
-4.40765e-06
-4.40779e-06
-4.40794e-06
-4.40809e-06
-4.40826e-06
-4.40844e-06
-4.40863e-06
-4.40884e-06
-4.40906e-06
-4.40929e-06
-4.40954e-06
-4.4098e-06
-4.41008e-06
-4.41038e-06
-4.4107e-06
-4.41104e-06
-4.41141e-06
-4.41179e-06
-4.4122e-06
-4.41264e-06
-4.4131e-06
-4.41359e-06
-4.41411e-06
-4.41467e-06
-4.41526e-06
-4.41588e-06
-4.41654e-06
-4.41725e-06
-4.41799e-06
-4.41878e-06
-4.41962e-06
-4.4205e-06
-4.42144e-06
-4.42243e-06
-4.42348e-06
-4.42459e-06
-4.42576e-06
-4.427e-06
-4.42832e-06
-4.4297e-06
-4.43116e-06
-4.4327e-06
-4.43433e-06
-4.43605e-06
-4.43786e-06
-4.43977e-06
-4.44178e-06
-4.44389e-06
-4.44612e-06
-4.44847e-06
-4.45094e-06
-4.45354e-06
-4.45627e-06
-4.45914e-06
-4.46215e-06
-4.46532e-06
-4.46865e-06
-4.47214e-06
-4.4758e-06
-4.47965e-06
-4.48367e-06
-4.4879e-06
-4.49233e-06
-4.49696e-06
-4.50182e-06
-4.5069e-06
-4.51222e-06
-4.51778e-06
-4.5236e-06
-4.52968e-06
-4.53603e-06
-4.54267e-06
-4.5496e-06
-4.55684e-06
-4.56439e-06
-4.57227e-06
-4.58048e-06
-4.58904e-06
-4.59797e-06
-4.60727e-06
-4.61695e-06
-4.62703e-06
-4.63753e-06
-4.64844e-06
-4.6598e-06
-4.6716e-06
-4.68387e-06
-4.69662e-06
-4.70986e-06
-4.72361e-06
-4.73788e-06
-4.75269e-06
-4.76806e-06
-4.78399e-06
-4.80051e-06
-4.81763e-06
-4.83536e-06
-4.85373e-06
-4.87275e-06
-4.89244e-06
-4.91281e-06
-4.93388e-06
-4.95567e-06
-4.9782e-06
-5.00148e-06
-5.02554e-06
-5.05038e-06
-5.07604e-06
-5.10252e-06
-5.12986e-06
-5.15805e-06
-5.18714e-06
-5.21713e-06
-5.24804e-06
-5.2799e-06
-5.31272e-06
-5.34653e-06
-5.38134e-06
-5.41717e-06
-5.45405e-06
-5.492e-06
-5.53103e-06
-5.57117e-06
-5.61244e-06
-5.65486e-06
-5.69845e-06
-5.74323e-06
-5.78922e-06
-5.83645e-06
-5.88494e-06
-5.93471e-06
-5.98577e-06
-6.03817e-06
-6.09191e-06
-6.14702e-06
-6.20352e-06
-6.26144e-06
-6.3208e-06
-6.38162e-06
-6.44392e-06
-6.50774e-06
-6.57308e-06
-6.63999e-06
-6.70848e-06
-6.77858e-06
-6.85031e-06
-6.9237e-06
-6.99877e-06
-7.07555e-06
-7.15408e-06
-7.23436e-06
-7.31644e-06
-7.40033e-06
-7.48607e-06
-7.57369e-06
-7.66322e-06
-7.75468e-06
-7.84811e-06
-7.94354e-06
-8.04099e-06
-8.14051e-06
-8.24213e-06
-8.34587e-06
-8.45179e-06
-8.5599e-06
-8.67026e-06
-8.7829e-06
-8.89786e-06
-9.01517e-06
-9.13489e-06
-9.25705e-06
-9.3817e-06
-9.50889e-06
-9.63867e-06
-9.77108e-06
-9.90617e-06
-1.0044e-05
-1.01846e-05
-1.03281e-05
-1.04746e-05
-1.0624e-05
-1.07765e-05
-1.09322e-05
-1.10912e-05
-1.12536e-05
-1.1418e-05
-1.1586e-05
-1.17576e-05
-1.19331e-05
-1.21123e-05
-1.22954e-05
-1.24824e-05
-1.26734e-05
-1.28684e-05
-1.30674e-05
-1.32706e-05
-1.34781e-05
-1.36898e-05
-1.39058e-05
-1.41262e-05
-1.4351e-05
-1.45803e-05
-1.48139e-05
-1.50519e-05
-1.5294e-05
-1.55403e-05
-1.57905e-05
-1.60442e-05
-1.63011e-05
-1.65606e-05
-1.68222e-05
-1.70849e-05
-1.73479e-05
-1.76097e-05
-1.78688e-05
-1.81233e-05
-1.83708e-05
-1.86085e-05
-1.88329e-05
-1.904e-05
-1.92248e-05
-1.93817e-05
-1.95038e-05
-1.95836e-05
)
;

boundaryField
{
    fixedWall
    {
        type            calculated;
        value           uniform 0;
    }
    outlet
    {
        type            calculated;
        value           uniform -1.96123e-05;
    }
    defaultFaces
    {
        type            empty;
    }
}


// ************************************************************************* //
