/*--------------------------------*- C++ -*----------------------------------*\
| =========                 |                                                 |
| \\      /  F ield         | OpenFOAM: The Open Source CFD Toolbox           |
|  \\    /   O peration     | Version:  2406                                  |
|   \\  /    A nd           | Website:  www.openfoam.com                      |
|    \\/     M anipulation  |                                                 |
\*---------------------------------------------------------------------------*/
FoamFile
{
    version     2.0;
    format      ascii;
    arch        "LSB;label=32;scalar=64";
    class       volScalarField;
    location    "12.8";
    object      Qdot;
}
// * * * * * * * * * * * * * * * * * * * * * * * * * * * * * * * * * * * * * //

dimensions      [1 -1 -3 0 0 0 0];

internalField   nonuniform List<scalar> 
1000
(
-7.82544e-19
-4.98562e-14
-1.72048e-16
-1.30662e-15
3.80442e-09
1.90221e-08
5.56944e-08
1.7279e-07
4.7357e-07
1.17788e-06
2.64253e-06
5.49609e-06
1.06811e-05
1.9588e-05
3.41299e-05
5.68353e-05
9.09287e-05
0.000140359
0.00020983
0.000304749
0.000431197
0.000595806
0.000805645
0.00106806
0.0013905
0.00178032
0.00224459
0.00278988
0.00342213
0.00414639
0.00496678
0.00588627
0.00690662
0.00802833
0.0092506
0.0105713
0.011987
0.013493
0.0150836
0.0167519
0.01849
0.0202895
0.022141
0.0240347
0.0259605
0.0279081
0.029867
0.0318269
0.0337777
0.0357096
0.0376131
0.0394796
0.0413006
0.0430687
0.0447769
0.0464193
0.0479905
0.0494859
0.0509018
0.0522353
0.0534841
0.0546467
0.0557222
0.0567106
0.0576121
0.0584278
0.0591591
0.0598078
0.0603763
0.0608671
0.0612832
0.0616277
0.0619039
0.0621152
0.0622653
0.0623578
0.0623963
0.0623847
0.0623264
0.0622252
0.0620846
0.061908
0.0616989
0.0614603
0.0611955
0.0609075
0.060599
0.0602728
0.0599314
0.0595771
0.0592123
0.0588391
0.0584593
0.0580749
0.0576874
0.0572984
0.0569094
0.0565217
0.0561363
0.0557544
0.0553769
0.0550047
0.0546385
0.054279
0.0539269
0.0535825
0.0532464
0.052919
0.0526004
0.0522911
0.0519912
0.0517008
0.05142
0.051149
0.0508878
0.0506363
0.0503946
0.0501625
0.04994
0.049727
0.0495234
0.049329
0.0491437
0.0489672
0.0487996
0.0486404
0.0484896
0.048347
0.0482123
0.0480853
0.0479658
0.0478537
0.0477486
0.0476504
0.0475589
0.0474738
0.047395
0.0473221
0.0472551
0.0471936
0.0471376
0.0470867
0.0470409
0.0469999
0.0469634
0.0469315
0.0469038
0.0468802
0.0468605
0.0468445
0.0468322
0.0468233
0.0468177
0.0468153
0.0468158
0.0468193
0.0468254
0.0468342
0.0468455
0.0468592
0.0468751
0.0468932
0.0469133
0.0469354
0.0469594
0.0469851
0.0470124
0.0470414
0.0470719
0.0471038
0.0471371
0.0471716
0.0472074
0.0472443
0.0472822
0.0473213
0.0473612
0.0474022
0.047444
0.0474867
0.04753
0.0475741
0.047619
0.0476645
0.0477107
0.0477575
0.0478049
0.0478527
0.0479009
0.0479497
0.047999
0.0480485
0.0480983
0.0481487
0.0481995
0.0482506
0.0483019
0.0483536
0.0484056
0.0484578
0.0485103
0.048563
0.0486159
0.0486688
0.0487222
0.0487757
0.0488293
0.0488832
0.0489372
0.0489913
0.0490456
0.0491
0.0491545
0.0492092
0.0492639
0.0493188
0.0493739
0.0494287
0.0494839
0.0495393
0.0495947
0.0496501
0.0497057
0.0497614
0.0498171
0.0498729
0.0499288
0.0499848
0.0500409
0.0500968
0.050153
0.0502092
0.0502656
0.050322
0.0503785
0.050435
0.0504916
0.0505483
0.050605
0.0506618
0.0507187
0.0507756
0.0508326
0.0508897
0.0509468
0.051004
0.0510613
0.0511186
0.0511761
0.0512335
0.0512911
0.0513487
0.0514064
0.0514642
0.051522
0.0515799
0.0516379
0.0516959
0.051754
0.0518122
0.0518705
0.0519288
0.0519872
0.0520457
0.0521042
0.0521629
0.0522216
0.0522803
0.0523392
0.0523981
0.0524571
0.0525162
0.0525754
0.0526347
0.052694
0.0527534
0.0528129
0.0528725
0.0529321
0.0529919
0.0530517
0.0531117
0.0531715
0.0532316
0.0532917
0.053352
0.0534124
0.0534728
0.0535331
0.0535937
0.0536544
0.0537152
0.053776
0.0538369
0.053898
0.0539591
0.0540203
0.0540816
0.0541429
0.0542044
0.054266
0.0543276
0.0543894
0.0544512
0.0545132
0.0545752
0.0546373
0.0546996
0.0547619
0.0548242
0.0548867
0.0549493
0.055012
0.0550749
0.0551378
0.0552008
0.0552639
0.0553271
0.0553904
0.0554538
0.0555173
0.0555809
0.0556446
0.0557084
0.0557723
0.0558363
0.0559005
0.0559647
0.056029
0.0560935
0.056158
0.0562227
0.0562874
0.0563523
0.0564172
0.0564823
0.0565475
0.0566128
0.0566782
0.0567437
0.0568093
0.0568751
0.0569407
0.0570067
0.0570728
0.057139
0.0572053
0.0572717
0.0573383
0.0574049
0.0574716
0.0575385
0.0576055
0.0576726
0.0577398
0.0578071
0.0578746
0.0579421
0.0580098
0.0580776
0.0581455
0.0582136
0.0582817
0.05835
0.0584184
0.0584869
0.0585555
0.0586243
0.0586932
0.0587622
0.0588313
0.0589006
0.0589699
0.0590394
0.0591091
0.0591788
0.0592487
0.0593187
0.0593888
0.0594591
0.0595295
0.0596
0.0596704
0.0597412
0.0598121
0.0598831
0.0599543
0.0600255
0.0600969
0.0601684
0.0602401
0.0603119
0.0603838
0.0604558
0.060528
0.0606003
0.0606727
0.0607453
0.060818
0.0608908
0.0609638
0.0610369
0.0611101
0.0611835
0.061257
0.0613306
0.0614043
0.0614782
0.0615523
0.0616264
0.0617007
0.0617751
0.0618497
0.0619244
0.061999
0.062074
0.0621491
0.0622244
0.0622998
0.0623753
0.062451
0.0625268
0.0626028
0.0626785
0.0627548
0.0628312
0.0629077
0.0629843
0.0630611
0.063138
0.0632151
0.0632923
0.0633696
0.063447
0.0635246
0.0636024
0.0636803
0.0637583
0.0638365
0.0639148
0.0639932
0.0640718
0.0641506
0.0642294
0.0643085
0.0643877
0.064467
0.0645465
0.0646261
0.0647059
0.0647858
0.0648658
0.064946
0.0650264
0.0651069
0.0651876
0.0652684
0.0653493
0.0654304
0.0655117
0.0655931
0.0656747
0.0657562
0.0658381
0.0659201
0.0660023
0.0660846
0.0661671
0.0662497
0.0663325
0.0664155
0.0664985
0.0665818
0.0666652
0.0667487
0.0668325
0.0669163
0.0670004
0.0670846
0.0671689
0.0672534
0.0673381
0.0674229
0.0675079
0.0675931
0.0676784
0.0677639
0.0678495
0.0679353
0.0680212
0.0681074
0.0681937
0.0682801
0.0683667
0.0684535
0.0685405
0.0686276
0.0687149
0.0688023
0.0688899
0.0689777
0.0690656
0.0691538
0.0692421
0.0693305
0.0694191
0.0695079
0.0695969
0.069686
0.0697754
0.0698648
0.0699545
0.0700443
0.0701343
0.0702245
0.0703149
0.0704054
0.0704961
0.070587
0.0706779
0.0707691
0.0708605
0.0709521
0.0710439
0.0711358
0.071228
0.0713202
0.0714127
0.0715054
0.0715982
0.0716912
0.0717844
0.0718778
0.0719713
0.0720651
0.072159
0.0722531
0.0723474
0.0724418
0.0725364
0.0726313
0.0727263
0.0728215
0.0729169
0.0730125
0.0731082
0.0732042
0.0733003
0.0733966
0.0734932
0.0735899
0.0736868
0.0737838
0.0738811
0.0739786
0.0740762
0.0741741
0.0742721
0.0743704
0.0744688
0.0745674
0.0746663
0.0747653
0.0748645
0.0749639
0.0750635
0.0751633
0.0752633
0.0753635
0.0754639
0.0755645
0.0756653
0.0757663
0.0758675
0.0759689
0.0760705
0.0761723
0.0762743
0.0763765
0.076479
0.0765816
0.0766844
0.0767874
0.0768907
0.0769942
0.0770978
0.0772017
0.0773058
0.0774101
0.0775146
0.0776193
0.0777243
0.0778294
0.0779348
0.0780403
0.0781461
0.0782521
0.0783584
0.0784648
0.0785715
0.0786783
0.0787854
0.0788928
0.0790003
0.0791081
0.079216
0.0793242
0.0794327
0.0795413
0.0796502
0.0797593
0.0798686
0.0799782
0.0800879
0.0801979
0.0803082
0.0804186
0.0805293
0.0806403
0.0807514
0.0808628
0.0809744
0.0810863
0.0811983
0.0813107
0.0814232
0.081536
0.0816487
0.0817615
0.081875
0.0819888
0.0821028
0.0822171
0.0823316
0.0824463
0.0825613
0.0826765
0.082792
0.0829077
0.0830236
0.0831398
0.0832562
0.0833729
0.0834898
0.083607
0.0837244
0.0838421
0.08396
0.0840782
0.0841966
0.0843152
0.0844342
0.0845533
0.0846728
0.0847925
0.0849124
0.0850326
0.0851527
0.0852728
0.0853937
0.0855149
0.0856363
0.085758
0.0858799
0.0860021
0.0861245
0.0862472
0.0863702
0.0864934
0.0866168
0.0867406
0.0868646
0.0869888
0.0871134
0.0872381
0.0873632
0.0874885
0.0876141
0.08774
0.0878661
0.0879925
0.0881191
0.088246
0.0883732
0.0885007
0.0886284
0.0887565
0.0888847
0.0890133
0.0891421
0.0892713
0.0894007
0.0895303
0.0896603
0.0897906
0.0899211
0.0900519
0.090183
0.0903144
0.0904461
0.0905781
0.0907104
0.090843
0.0909753
0.0911078
0.0912411
0.0913748
0.0915087
0.091643
0.0917775
0.0919123
0.0920474
0.0921828
0.0923185
0.0924545
0.0925908
0.0927274
0.0928644
0.0930016
0.0931391
0.0932769
0.0934143
0.0935527
0.0936913
0.0938303
0.0939696
0.0941092
0.0942491
0.0943893
0.0945299
0.0946707
0.0948119
0.0949534
0.0950952
0.0952373
0.0953798
0.0955226
0.0956657
0.0958091
0.0959528
0.0960969
0.0962413
0.096386
0.096531
0.0966764
0.0968221
0.0969681
0.0971144
0.0972611
0.0974081
0.0975555
0.0977031
0.0978511
0.0979995
0.0981481
0.0982971
0.0984464
0.0985961
0.0987461
0.0988964
0.0990471
0.0991981
0.0993494
0.0995011
0.0996531
0.0998054
0.099958
0.100111
0.100264
0.100418
0.100572
0.100726
0.100881
0.101036
0.101191
0.101347
0.101503
0.101659
0.101816
0.101973
0.102131
0.102288
0.102446
0.102605
0.102764
0.102923
0.103082
0.103242
0.103402
0.103563
0.103724
0.103885
0.104047
0.104209
0.104372
0.104535
0.104699
0.104863
0.105027
0.105192
0.105358
0.105524
0.10569
0.105857
0.106025
0.106194
0.106363
0.106533
0.106704
0.106875
0.107048
0.107221
0.107396
0.107571
0.107748
0.107925
0.108105
0.108285
0.108467
0.108651
0.108836
0.109024
0.109213
0.109404
0.109598
0.109794
0.109993
0.110195
0.1104
0.110608
0.11082
0.111035
0.111254
0.111478
0.111707
0.11194
0.112179
0.112424
0.112675
0.112932
0.113197
0.113469
0.113749
0.114038
0.114336
0.114643
0.114961
0.11529
0.115631
0.115985
0.116352
0.116733
0.117129
0.117541
0.11797
0.118417
0.118884
0.11937
0.119878
0.120408
0.120962
0.121541
0.122147
0.122781
0.123444
0.124138
0.124864
0.125625
0.126421
0.127256
0.128129
0.129044
0.130002
0.131006
0.132056
0.133155
0.134306
0.13551
0.136769
0.138085
0.139462
0.140899
0.142401
0.143968
0.145602
0.147307
0.149083
0.150932
0.152856
0.154856
0.156934
0.159091
0.161328
0.163644
0.166042
0.168519
0.171077
0.173714
0.176429
0.17922
0.182084
0.185018
0.188018
0.191081
0.194199
0.197367
0.200577
0.203821
0.207088
0.21037
0.213652
0.216922
0.220166
0.223366
0.226506
0.229567
0.232527
0.235365
0.238058
0.240582
0.242909
0.245014
0.246867
0.248441
0.249706
0.250631
0.251187
0.251345
0.251076
0.250352
0.249147
0.247436
0.245199
0.242417
0.239075
0.235163
0.230676
0.225613
0.21998
0.213788
0.207056
0.199809
0.192078
0.183904
0.175331
0.166412
0.157204
0.147772
0.138182
0.128508
0.118822
0.1092
0.0997154
0.0904423
0.08145
0.0728037
0.0645623
0.0567777
0.0494931
0.0427424
0.0365654
0.0309945
0.0259419
0.0214594
0.0175312
0.0141331
0.0112335
0.00879497
0.00677566
0.00513073
0.00381402
0.00277959
0.00198303
0.0013827
0.000940577
0.000622983
0.000400892
0.000250034
0.000150737
8.75823e-05
4.88809e-05
2.61085e-05
1.32913e-05
6.41878e-06
2.92495e-06
1.25075e-06
4.98396e-07
1.84073e-07
6.21806e-08
1.96302e-08
5.05959e-09
1.42676e-09
2.37776e-10
4.30094e-10
-1.54972e-17
-1.84457e-18
-6.55526e-11
-6.987e-21
2.66679e-11
0
)
;

boundaryField
{
    fixedWall
    {
        type            calculated;
        value           uniform 0;
    }
    outlet
    {
        type            calculated;
        value           uniform 0;
    }
    defaultFaces
    {
        type            empty;
    }
}


// ************************************************************************* //
