/*--------------------------------*- C++ -*----------------------------------*\
| =========                 |                                                 |
| \\      /  F ield         | OpenFOAM: The Open Source CFD Toolbox           |
|  \\    /   O peration     | Version:  2406                                  |
|   \\  /    A nd           | Website:  www.openfoam.com                      |
|    \\/     M anipulation  |                                                 |
\*---------------------------------------------------------------------------*/
FoamFile
{
    version     2.0;
    format      ascii;
    arch        "LSB;label=32;scalar=64";
    class       volScalarField;
    location    "12.8";
    object      T;
}
// * * * * * * * * * * * * * * * * * * * * * * * * * * * * * * * * * * * * * //

dimensions      [0 0 0 1 0 0 0];

internalField   nonuniform List<scalar> 
1000
(
304.315
325.348
344.965
363.373
380.733
397.171
412.79
427.673
441.891
455.504
468.561
481.106
493.178
504.811
516.033
526.871
537.348
547.485
557.301
566.813
576.037
584.987
593.676
602.116
610.318
618.291
626.046
633.59
640.933
648.081
655.042
661.823
668.428
674.866
681.14
687.256
693.22
699.035
704.706
710.237
715.633
720.897
726.033
731.044
735.933
740.705
745.361
749.905
754.339
758.667
762.891
767.014
771.037
774.963
778.795
782.535
786.185
789.747
793.223
796.614
799.924
803.153
806.304
809.377
812.376
815.302
818.155
820.939
823.653
826.301
828.883
831.4
833.855
836.248
838.581
840.855
843.071
845.231
847.336
849.387
851.385
853.332
855.228
857.075
858.874
860.625
862.331
863.991
865.607
867.18
868.71
870.2
871.649
873.059
874.43
875.764
877.061
878.322
879.548
880.74
881.899
883.024
884.118
885.181
886.213
887.216
888.189
889.135
890.052
890.943
891.808
892.647
893.461
894.251
895.017
895.76
896.48
897.178
897.855
898.512
899.147
899.763
900.36
900.938
901.498
902.04
902.565
903.073
903.564
904.04
904.5
904.945
905.376
905.792
906.195
906.584
906.96
907.323
907.674
908.013
908.341
908.657
908.962
909.257
909.542
909.816
910.081
910.336
910.583
910.82
911.049
911.27
911.483
911.688
911.885
912.076
912.259
912.435
912.605
912.768
912.926
913.077
913.223
913.363
913.497
913.627
913.751
913.87
913.985
914.095
914.201
914.303
914.4
914.494
914.584
914.67
914.753
914.832
914.909
914.982
915.051
915.118
915.182
915.244
915.303
915.359
915.413
915.465
915.514
915.562
915.607
915.65
915.692
915.731
915.769
915.805
915.84
915.873
915.904
915.934
915.963
915.99
916.016
916.041
916.065
916.087
916.109
916.129
916.149
916.167
916.185
916.202
916.218
916.233
916.247
916.261
916.274
916.287
916.298
916.31
916.32
916.33
916.34
916.349
916.357
916.366
916.373
916.381
916.387
916.394
916.4
916.406
916.412
916.417
916.422
916.426
916.431
916.435
916.439
916.442
916.446
916.449
916.452
916.455
916.458
916.46
916.463
916.465
916.467
916.469
916.471
916.472
916.474
916.475
916.477
916.478
916.479
916.48
916.482
916.483
916.483
916.484
916.485
916.486
916.486
916.487
916.488
916.488
916.489
916.489
916.49
916.49
916.49
916.491
916.491
916.491
916.491
916.492
916.492
916.492
916.492
916.492
916.493
916.493
916.493
916.493
916.493
916.493
916.493
916.493
916.493
916.494
916.494
916.494
916.494
916.494
916.494
916.494
916.494
916.494
916.494
916.494
916.494
916.494
916.494
916.495
916.495
916.495
916.495
916.495
916.495
916.495
916.495
916.495
916.495
916.495
916.496
916.496
916.496
916.496
916.496
916.496
916.496
916.496
916.497
916.497
916.497
916.497
916.497
916.497
916.497
916.498
916.498
916.498
916.498
916.498
916.498
916.499
916.499
916.499
916.499
916.499
916.499
916.5
916.5
916.5
916.5
916.5
916.501
916.501
916.501
916.501
916.501
916.501
916.502
916.502
916.502
916.502
916.502
916.503
916.503
916.503
916.503
916.503
916.504
916.504
916.504
916.504
916.504
916.504
916.505
916.505
916.505
916.505
916.505
916.506
916.506
916.506
916.506
916.506
916.506
916.507
916.507
916.507
916.507
916.507
916.507
916.508
916.508
916.508
916.508
916.508
916.508
916.508
916.509
916.509
916.509
916.509
916.509
916.509
916.509
916.509
916.51
916.51
916.51
916.51
916.51
916.51
916.51
916.51
916.51
916.511
916.511
916.511
916.511
916.511
916.511
916.511
916.511
916.511
916.511
916.512
916.512
916.512
916.512
916.512
916.512
916.512
916.512
916.512
916.512
916.512
916.512
916.512
916.512
916.513
916.513
916.513
916.513
916.513
916.513
916.513
916.513
916.513
916.513
916.513
916.513
916.513
916.513
916.513
916.513
916.513
916.514
916.514
916.514
916.514
916.514
916.514
916.514
916.514
916.514
916.514
916.514
916.514
916.514
916.514
916.514
916.514
916.514
916.514
916.514
916.514
916.514
916.514
916.514
916.514
916.514
916.514
916.515
916.515
916.515
916.515
916.515
916.515
916.515
916.515
916.515
916.515
916.515
916.515
916.515
916.515
916.515
916.515
916.515
916.515
916.515
916.515
916.515
916.515
916.515
916.515
916.515
916.515
916.515
916.515
916.515
916.515
916.515
916.515
916.515
916.515
916.515
916.515
916.515
916.515
916.515
916.515
916.516
916.516
916.516
916.516
916.516
916.516
916.516
916.516
916.516
916.516
916.516
916.516
916.516
916.516
916.516
916.516
916.516
916.516
916.516
916.516
916.516
916.516
916.516
916.516
916.516
916.516
916.516
916.516
916.516
916.516
916.516
916.516
916.516
916.516
916.516
916.516
916.516
916.516
916.516
916.517
916.517
916.517
916.517
916.517
916.517
916.517
916.517
916.517
916.517
916.517
916.517
916.517
916.517
916.517
916.517
916.517
916.517
916.517
916.517
916.517
916.517
916.517
916.517
916.517
916.517
916.517
916.517
916.517
916.517
916.517
916.517
916.518
916.518
916.518
916.518
916.518
916.518
916.518
916.518
916.518
916.518
916.518
916.518
916.518
916.518
916.518
916.518
916.518
916.518
916.518
916.518
916.518
916.518
916.518
916.518
916.518
916.518
916.518
916.518
916.518
916.518
916.518
916.518
916.518
916.518
916.518
916.518
916.518
916.518
916.518
916.518
916.518
916.518
916.518
916.518
916.518
916.518
916.518
916.518
916.518
916.518
916.518
916.518
916.518
916.518
916.518
916.518
916.518
916.518
916.518
916.518
916.518
916.518
916.518
916.518
916.518
916.518
916.518
916.518
916.518
916.518
916.518
916.518
916.518
916.518
916.518
916.518
916.518
916.518
916.518
916.518
916.518
916.518
916.518
916.518
916.518
916.518
916.518
916.518
916.518
916.518
916.518
916.518
916.518
916.518
916.518
916.518
916.518
916.518
916.518
916.518
916.518
916.518
916.518
916.519
916.519
916.519
916.519
916.519
916.519
916.519
916.519
916.519
916.519
916.519
916.519
916.519
916.519
916.519
916.519
916.519
916.519
916.519
916.519
916.519
916.519
916.519
916.519
916.519
916.519
916.519
916.519
916.519
916.519
916.519
916.519
916.519
916.519
916.519
916.519
916.519
916.519
916.519
916.519
916.519
916.519
916.519
916.519
916.518
916.518
916.518
916.518
916.518
916.518
916.517
916.517
916.517
916.517
916.516
916.516
916.516
916.515
916.515
916.514
916.514
916.514
916.513
916.512
916.512
916.511
916.51
916.51
916.509
916.508
916.507
916.506
916.505
916.503
916.502
916.501
916.499
916.498
916.496
916.494
916.492
916.49
916.487
916.485
916.482
916.48
916.477
916.473
916.47
916.466
916.462
916.458
916.454
916.449
916.444
916.438
916.432
916.426
916.419
916.412
916.405
916.396
916.388
916.379
916.369
916.358
916.347
916.335
916.323
916.309
916.295
916.28
916.264
916.247
916.229
916.21
916.189
916.168
916.145
916.12
916.094
916.067
916.038
916.007
915.975
915.94
915.904
915.866
915.825
915.782
915.737
915.689
915.638
915.585
915.528
915.469
915.406
915.34
915.271
915.197
915.12
915.039
914.954
914.864
914.77
914.67
914.566
914.457
914.342
914.222
914.095
913.963
913.824
913.678
913.525
913.366
913.199
913.024
912.841
912.649
912.449
912.24
912.022
911.794
911.556
911.308
911.049
910.779
910.497
910.204
909.898
909.58
909.249
908.904
908.546
908.173
907.786
907.383
906.965
906.531
906.08
905.612
905.126
904.623
904.101
903.56
903
902.419
901.818
901.196
900.552
899.886
899.197
898.484
897.748
896.987
896.201
895.39
894.552
893.687
892.794
891.873
890.924
889.944
888.935
887.894
886.822
885.718
884.58
883.409
882.203
880.962
879.685
878.371
877.019
875.629
874.199
872.729
871.218
869.665
868.068
866.428
864.743
863.011
861.233
859.406
857.53
855.603
853.625
851.594
849.508
847.367
845.169
842.913
840.597
838.219
835.778
833.273
830.7
828.06
825.35
822.567
819.711
816.778
813.766
810.674
807.498
804.237
800.887
797.446
793.912
790.28
786.548
782.713
778.772
774.72
770.554
766.271
761.866
757.335
752.674
747.879
742.944
737.865
732.636
727.253
721.711
716.002
710.145
704.144
697.905
691.477
684.853
678.026
670.989
663.735
656.258
648.55
640.604
632.412
623.969
615.267
606.3
597.061
587.544
577.745
567.658
557.28
546.607
535.638
524.373
512.813
500.962
488.824
476.407
463.721
450.781
437.603
424.207
410.619
396.867
382.985
369.014
354.999
340.991
327.049
313.24
299.638
)
;

boundaryField
{
    fixedWall
    {
        type            fixedValue;
        value           uniform 293;
    }
    outlet
    {
        type            inletOutlet;
        inletValue      uniform 293;
        value           uniform 293;
    }
    defaultFaces
    {
        type            empty;
    }
}


// ************************************************************************* //
