/*--------------------------------*- C++ -*----------------------------------*\
| =========                 |                                                 |
| \\      /  F ield         | OpenFOAM: The Open Source CFD Toolbox           |
|  \\    /   O peration     | Version:  2406                                  |
|   \\  /    A nd           | Website:  www.openfoam.com                      |
|    \\/     M anipulation  |                                                 |
\*---------------------------------------------------------------------------*/
FoamFile
{
    version     2.0;
    format      ascii;
    arch        "LSB;label=32;scalar=64";
    class       volScalarField;
    location    "5.8";
    object      T;
}
// * * * * * * * * * * * * * * * * * * * * * * * * * * * * * * * * * * * * * //

dimensions      [0 0 0 1 0 0 0];

internalField   nonuniform List<scalar> 
1000
(
310.17
340.997
368.925
394.518
418.174
440.187
460.779
480.128
498.373
515.632
531.999
547.555
562.369
576.499
589.997
602.906
615.266
627.112
638.475
649.382
659.859
669.928
679.61
688.923
697.885
706.513
714.82
722.82
730.527
737.952
745.106
751.999
758.642
765.044
771.214
777.16
782.89
788.411
793.731
798.857
803.795
808.551
813.133
817.544
821.792
825.882
829.818
833.606
837.25
840.756
844.127
847.369
850.486
853.481
856.358
859.123
861.777
864.326
866.772
869.119
871.37
873.529
875.598
877.582
879.482
881.302
883.044
884.712
886.308
887.834
889.293
890.688
892.021
893.294
894.509
895.669
896.775
897.831
898.837
899.796
900.709
901.579
902.407
903.194
903.943
904.656
905.333
905.975
906.586
907.165
907.715
908.236
908.73
909.199
909.642
910.062
910.459
910.834
911.19
911.525
911.842
912.141
912.424
912.69
912.941
913.178
913.4
913.61
913.807
913.993
914.166
914.33
914.484
914.629
914.764
914.892
915.011
915.123
915.227
915.325
915.417
915.502
915.582
915.657
915.726
915.791
915.852
915.908
915.961
916.01
916.055
916.097
916.136
916.173
916.207
916.238
916.267
916.294
916.319
916.342
916.363
916.382
916.4
916.417
916.432
916.446
916.459
916.471
916.482
916.492
916.501
916.509
916.517
916.524
916.53
916.536
916.541
916.545
916.55
916.553
916.557
916.56
916.562
916.565
916.567
916.569
916.57
916.572
916.573
916.574
916.575
916.575
916.576
916.576
916.576
916.576
916.576
916.576
916.576
916.576
916.575
916.575
916.575
916.574
916.573
916.573
916.572
916.571
916.571
916.57
916.569
916.568
916.567
916.566
916.565
916.564
916.563
916.562
916.561
916.56
916.559
916.558
916.557
916.555
916.554
916.553
916.552
916.551
916.55
916.548
916.547
916.546
916.545
916.543
916.542
916.541
916.54
916.539
916.537
916.536
916.535
916.534
916.532
916.531
916.53
916.529
916.527
916.526
916.525
916.524
916.522
916.521
916.52
916.519
916.518
916.517
916.515
916.514
916.513
916.512
916.511
916.51
916.509
916.508
916.506
916.505
916.504
916.503
916.502
916.501
916.5
916.499
916.498
916.497
916.497
916.496
916.495
916.494
916.493
916.492
916.491
916.491
916.49
916.489
916.488
916.488
916.487
916.486
916.486
916.485
916.484
916.484
916.483
916.483
916.482
916.482
916.481
916.481
916.48
916.48
916.479
916.479
916.479
916.478
916.478
916.478
916.478
916.477
916.477
916.477
916.477
916.476
916.476
916.476
916.476
916.476
916.476
916.476
916.476
916.476
916.476
916.476
916.476
916.476
916.476
916.476
916.476
916.476
916.477
916.477
916.477
916.477
916.477
916.478
916.478
916.478
916.478
916.479
916.479
916.479
916.48
916.48
916.48
916.481
916.481
916.481
916.482
916.482
916.483
916.483
916.484
916.484
916.485
916.485
916.486
916.486
916.487
916.487
916.488
916.488
916.489
916.49
916.49
916.491
916.491
916.492
916.492
916.493
916.494
916.494
916.495
916.496
916.496
916.497
916.497
916.498
916.499
916.499
916.5
916.501
916.501
916.502
916.502
916.503
916.504
916.504
916.505
916.505
916.506
916.507
916.507
916.508
916.508
916.509
916.509
916.51
916.51
916.511
916.511
916.511
916.512
916.512
916.513
916.513
916.513
916.513
916.514
916.514
916.514
916.514
916.515
916.515
916.515
916.515
916.515
916.515
916.515
916.515
916.515
916.515
916.515
916.515
916.515
916.515
916.515
916.515
916.515
916.515
916.515
916.515
916.514
916.514
916.514
916.514
916.514
916.513
916.513
916.513
916.513
916.512
916.512
916.512
916.512
916.511
916.511
916.511
916.511
916.51
916.51
916.51
916.51
916.51
916.509
916.509
916.509
916.509
916.509
916.509
916.509
916.508
916.508
916.508
916.508
916.508
916.508
916.508
916.508
916.508
916.508
916.508
916.508
916.508
916.508
916.509
916.509
916.509
916.509
916.509
916.509
916.509
916.509
916.51
916.51
916.51
916.51
916.51
916.511
916.511
916.511
916.511
916.511
916.512
916.512
916.512
916.512
916.512
916.512
916.513
916.513
916.513
916.513
916.513
916.513
916.514
916.514
916.514
916.514
916.514
916.514
916.514
916.514
916.515
916.515
916.515
916.515
916.515
916.515
916.515
916.515
916.515
916.515
916.515
916.515
916.515
916.515
916.515
916.515
916.516
916.516
916.516
916.516
916.516
916.516
916.516
916.516
916.516
916.516
916.516
916.516
916.516
916.516
916.516
916.516
916.516
916.516
916.516
916.516
916.515
916.515
916.515
916.515
916.515
916.515
916.515
916.515
916.515
916.515
916.515
916.515
916.515
916.514
916.514
916.514
916.514
916.514
916.514
916.513
916.513
916.513
916.513
916.512
916.512
916.512
916.512
916.511
916.511
916.511
916.511
916.51
916.51
916.51
916.51
916.509
916.509
916.509
916.509
916.508
916.508
916.508
916.508
916.508
916.508
916.507
916.507
916.507
916.507
916.507
916.507
916.507
916.507
916.507
916.507
916.508
916.508
916.508
916.508
916.508
916.509
916.509
916.509
916.51
916.51
916.511
916.511
916.511
916.512
916.512
916.513
916.513
916.514
916.514
916.515
916.515
916.516
916.517
916.517
916.518
916.518
916.519
916.519
916.52
916.52
916.52
916.521
916.521
916.521
916.522
916.522
916.522
916.522
916.523
916.523
916.523
916.523
916.523
916.523
916.523
916.523
916.523
916.522
916.522
916.522
916.522
916.522
916.521
916.521
916.521
916.52
916.52
916.52
916.519
916.519
916.519
916.518
916.518
916.518
916.518
916.517
916.517
916.517
916.517
916.516
916.516
916.516
916.516
916.516
916.516
916.516
916.516
916.516
916.516
916.516
916.516
916.516
916.516
916.516
916.516
916.516
916.516
916.516
916.516
916.516
916.516
916.516
916.516
916.516
916.516
916.516
916.515
916.515
916.515
916.515
916.514
916.514
916.514
916.513
916.513
916.512
916.512
916.511
916.51
916.51
916.509
916.508
916.508
916.507
916.506
916.505
916.504
916.504
916.503
916.502
916.501
916.5
916.5
916.499
916.498
916.498
916.497
916.496
916.496
916.495
916.495
916.494
916.494
916.494
916.493
916.493
916.493
916.493
916.493
916.494
916.494
916.494
916.495
916.495
916.496
916.497
916.498
916.498
916.499
916.501
916.502
916.503
916.504
916.506
916.507
916.509
916.51
916.512
916.514
916.516
916.517
916.519
916.521
916.523
916.525
916.526
916.528
916.53
916.531
916.533
916.534
916.536
916.537
916.539
916.54
916.541
916.542
916.543
916.544
916.544
916.545
916.545
916.545
916.546
916.546
916.546
916.545
916.545
916.545
916.544
916.544
916.543
916.542
916.541
916.54
916.539
916.538
916.537
916.536
916.535
916.533
916.532
916.531
916.529
916.528
916.526
916.524
916.523
916.521
916.519
916.518
916.516
916.514
916.512
916.51
916.508
916.506
916.504
916.502
916.5
916.498
916.496
916.494
916.492
916.489
916.487
916.485
916.483
916.482
916.48
916.478
916.476
916.475
916.474
916.472
916.471
916.47
916.469
916.469
916.468
916.468
916.468
916.468
916.468
916.469
916.469
916.47
916.471
916.472
916.473
916.475
916.476
916.477
916.479
916.48
916.482
916.483
916.484
916.486
916.487
916.489
916.49
916.491
916.492
916.493
916.495
916.496
916.497
916.498
916.499
916.5
916.502
916.503
916.504
916.506
916.507
916.509
916.51
916.511
916.513
916.514
916.515
916.516
916.517
916.517
916.517
916.517
916.516
916.515
916.513
916.511
916.508
916.504
916.5
916.496
916.491
916.486
916.48
916.475
916.469
916.464
916.459
916.454
916.449
916.445
916.442
916.44
916.438
916.438
916.438
916.439
916.441
916.444
916.448
916.452
916.456
916.46
916.465
916.469
916.473
916.476
916.479
916.482
916.483
916.484
916.484
916.484
916.481
916.477
916.471
916.46
916.445
916.424
916.397
916.364
916.325
916.281
916.234
916.188
916.144
916.105
916.071
916.043
916.018
915.988
915.93
915.785
915.408
914.466
912.045
904.814
877.459
689.145
532.937
431.567
370.313
335.258
315.843
305.274
299.572
296.508
294.865
293.985
293.514
293.262
293.127
293.055
293.016
292.996
292.985
292.979
292.976
292.974
292.973
292.973
292.973
292.973
292.973
292.973
292.973
292.973
292.973
292.973
292.973
292.973
292.973
292.973
292.974
292.974
292.974
292.974
292.974
292.974
292.974
292.974
292.974
292.974
292.974
292.974
292.975
292.975
292.975
292.975
292.975
292.975
292.975
292.975
292.975
292.975
292.975
292.975
292.975
292.976
292.976
292.976
292.976
292.976
292.976
)
;

boundaryField
{
    fixedWall
    {
        type            fixedValue;
        value           uniform 293;
    }
    outlet
    {
        type            inletOutlet;
        inletValue      uniform 293;
        value           uniform 292.976;
    }
    defaultFaces
    {
        type            empty;
    }
}


// ************************************************************************* //
