/*--------------------------------*- C++ -*----------------------------------*\
| =========                 |                                                 |
| \\      /  F ield         | OpenFOAM: The Open Source CFD Toolbox           |
|  \\    /   O peration     | Version:  2406                                  |
|   \\  /    A nd           | Website:  www.openfoam.com                      |
|    \\/     M anipulation  |                                                 |
\*---------------------------------------------------------------------------*/
FoamFile
{
    version     2.0;
    format      ascii;
    arch        "LSB;label=32;scalar=64";
    class       volScalarField;
    location    "3.1";
    object      CO2;
}
// * * * * * * * * * * * * * * * * * * * * * * * * * * * * * * * * * * * * * //

dimensions      [0 0 0 0 0 0 0];

internalField   nonuniform List<scalar> 
1000
(
0.0709257
0.0709257
0.0709257
0.0709257
0.0709257
0.0709257
0.0709258
0.0709258
0.0709258
0.0709258
0.0709258
0.0709258
0.0709258
0.0709258
0.0709259
0.0709259
0.0709259
0.0709259
0.0709259
0.0709259
0.0709259
0.070926
0.070926
0.070926
0.070926
0.070926
0.070926
0.0709261
0.0709261
0.0709261
0.0709261
0.0709261
0.0709261
0.0709261
0.0709262
0.0709262
0.0709262
0.0709262
0.0709262
0.0709262
0.0709262
0.0709262
0.0709263
0.0709263
0.0709263
0.0709263
0.0709263
0.0709263
0.0709263
0.0709263
0.0709263
0.0709263
0.0709263
0.0709263
0.0709263
0.0709263
0.0709263
0.0709263
0.0709263
0.0709263
0.0709263
0.0709263
0.0709263
0.0709263
0.0709263
0.0709263
0.0709264
0.0709264
0.0709264
0.0709264
0.0709264
0.0709264
0.0709264
0.0709264
0.0709264
0.0709264
0.0709263
0.0709263
0.0709263
0.0709263
0.0709263
0.0709263
0.0709263
0.0709263
0.0709263
0.0709263
0.0709263
0.0709263
0.0709263
0.0709263
0.0709263
0.0709263
0.0709263
0.0709263
0.0709263
0.0709263
0.0709263
0.0709263
0.0709263
0.0709263
0.0709263
0.0709263
0.0709263
0.0709263
0.0709263
0.0709263
0.0709263
0.0709263
0.0709263
0.0709263
0.0709263
0.0709263
0.0709263
0.0709263
0.0709263
0.0709263
0.0709263
0.0709263
0.0709263
0.0709263
0.0709263
0.0709263
0.0709263
0.0709263
0.0709263
0.0709263
0.0709263
0.0709263
0.0709263
0.0709263
0.0709263
0.0709263
0.0709263
0.0709263
0.0709263
0.0709263
0.0709263
0.0709263
0.0709263
0.0709263
0.0709263
0.0709263
0.0709263
0.0709263
0.0709263
0.0709262
0.0709262
0.0709262
0.0709262
0.0709262
0.0709262
0.0709262
0.0709262
0.0709262
0.0709262
0.0709262
0.0709262
0.0709262
0.0709262
0.0709262
0.0709262
0.0709262
0.0709262
0.0709262
0.0709262
0.0709262
0.0709262
0.0709262
0.0709262
0.0709262
0.0709262
0.0709262
0.0709262
0.0709262
0.0709262
0.0709262
0.0709262
0.0709262
0.0709262
0.0709262
0.0709262
0.0709262
0.0709262
0.0709262
0.0709262
0.0709262
0.0709262
0.0709262
0.0709262
0.0709262
0.0709262
0.0709262
0.0709262
0.0709261
0.0709261
0.0709261
0.0709261
0.0709261
0.0709261
0.0709261
0.0709261
0.0709261
0.0709261
0.0709261
0.0709261
0.0709261
0.0709261
0.0709261
0.0709261
0.0709261
0.0709261
0.0709261
0.0709261
0.0709261
0.0709261
0.0709261
0.0709261
0.0709261
0.0709261
0.0709261
0.0709261
0.0709261
0.0709261
0.0709261
0.0709261
0.0709261
0.0709261
0.0709261
0.070926
0.070926
0.070926
0.070926
0.070926
0.070926
0.070926
0.070926
0.070926
0.070926
0.070926
0.070926
0.070926
0.070926
0.070926
0.070926
0.070926
0.070926
0.070926
0.070926
0.070926
0.070926
0.070926
0.070926
0.070926
0.070926
0.070926
0.070926
0.0709259
0.0709259
0.0709259
0.0709259
0.0709259
0.0709259
0.0709259
0.0709259
0.0709259
0.0709259
0.0709259
0.0709259
0.0709259
0.0709259
0.0709259
0.0709259
0.0709259
0.0709259
0.0709259
0.0709259
0.0709259
0.0709259
0.0709259
0.0709258
0.0709258
0.0709258
0.0709258
0.0709258
0.0709258
0.0709258
0.0709258
0.0709258
0.0709258
0.0709258
0.0709258
0.0709258
0.0709258
0.0709258
0.0709258
0.0709258
0.0709258
0.0709257
0.0709257
0.0709257
0.0709257
0.0709257
0.0709257
0.0709257
0.0709257
0.0709257
0.0709257
0.0709257
0.0709257
0.0709257
0.0709257
0.0709257
0.0709256
0.0709256
0.0709256
0.0709256
0.0709256
0.0709256
0.0709256
0.0709256
0.0709256
0.0709256
0.0709256
0.0709256
0.0709256
0.0709255
0.0709255
0.0709255
0.0709255
0.0709255
0.0709255
0.0709255
0.0709255
0.0709255
0.0709255
0.0709255
0.0709254
0.0709254
0.0709254
0.0709254
0.0709254
0.0709254
0.0709254
0.0709254
0.0709254
0.0709254
0.0709253
0.0709253
0.0709253
0.0709253
0.0709253
0.0709253
0.0709253
0.0709253
0.0709253
0.0709252
0.0709252
0.0709252
0.0709252
0.0709252
0.0709252
0.0709252
0.0709251
0.0709251
0.0709251
0.0709251
0.0709251
0.0709251
0.0709251
0.070925
0.070925
0.070925
0.070925
0.070925
0.070925
0.0709249
0.0709249
0.0709249
0.0709249
0.0709249
0.0709248
0.0709248
0.0709248
0.0709248
0.0709248
0.0709247
0.0709247
0.0709247
0.0709247
0.0709246
0.0709246
0.0709246
0.0709246
0.0709245
0.0709245
0.0709245
0.0709245
0.0709244
0.0709244
0.0709244
0.0709244
0.0709243
0.0709243
0.0709243
0.0709242
0.0709242
0.0709242
0.0709241
0.0709241
0.070924
0.070924
0.070924
0.0709239
0.0709239
0.0709238
0.0709238
0.0709237
0.0709237
0.0709237
0.0709236
0.0709236
0.0709235
0.0709234
0.0709234
0.0709233
0.0709233
0.0709232
0.0709231
0.0709231
0.070923
0.0709229
0.0709229
0.0709228
0.0709227
0.0709226
0.0709225
0.0709224
0.0709223
0.0709222
0.0709221
0.070922
0.0709219
0.0709218
0.0709216
0.0709215
0.0709214
0.0709212
0.0709211
0.0709209
0.0709207
0.0709205
0.0709203
0.0709201
0.0709199
0.0709197
0.0709194
0.0709192
0.0709189
0.0709186
0.0709183
0.0709179
0.0709175
0.0709171
0.0709167
0.0709162
0.0709156
0.070915
0.0709144
0.0709136
0.0709128
0.0709118
0.0709107
0.0709095
0.0709081
0.0709064
0.0709043
0.0709019
0.070899
0.0708954
0.0708908
0.0708849
0.0708769
0.0708657
0.0708491
0.0708234
0.0707809
0.0707039
0.0705418
0.0701118
0.0686685
0.0625014
0.0288134
0.0135524
0.0065334
0.00319856
0.00157969
0.00078386
0.000389906
0.000194177
9.67536e-05
4.82211e-05
2.40357e-05
1.19819e-05
5.97387e-06
2.97906e-06
1.48601e-06
7.41498e-07
3.70136e-07
1.84853e-07
9.23709e-08
4.61975e-08
2.31479e-08
1.16327e-08
5.84455e-09
3.0088e-09
1.59574e-09
9.6297e-10
6.74347e-10
3.92862e-10
2.73955e-10
2.03435e-10
1.64367e-10
1.4993e-10
1.40315e-10
1.3338e-10
1.2941e-10
1.27442e-10
1.26447e-10
1.25918e-10
1.25666e-10
1.25504e-10
1.25408e-10
1.25345e-10
1.25315e-10
1.25299e-10
1.25287e-10
1.25282e-10
1.25279e-10
1.25277e-10
1.25276e-10
1.25276e-10
1.25276e-10
1.25276e-10
1.25276e-10
1.25276e-10
1.25277e-10
1.25277e-10
1.25277e-10
1.25278e-10
1.25278e-10
1.25278e-10
1.25279e-10
1.25279e-10
1.25279e-10
1.2528e-10
1.2528e-10
1.2528e-10
1.25281e-10
1.25281e-10
1.25281e-10
1.25282e-10
1.25282e-10
1.25282e-10
1.25283e-10
1.25283e-10
1.25283e-10
1.25284e-10
1.25284e-10
1.25285e-10
1.25285e-10
1.25285e-10
1.25286e-10
1.25286e-10
1.25287e-10
1.25287e-10
1.25287e-10
1.25287e-10
1.25288e-10
1.25288e-10
1.25289e-10
1.25289e-10
1.25289e-10
1.2529e-10
1.2529e-10
1.2529e-10
1.25291e-10
1.25291e-10
1.25291e-10
1.25292e-10
1.25292e-10
1.25292e-10
1.25293e-10
1.25293e-10
1.25293e-10
1.25294e-10
1.25294e-10
1.25294e-10
1.25295e-10
1.25295e-10
1.25295e-10
1.25296e-10
1.25296e-10
1.25297e-10
1.25297e-10
1.25297e-10
1.25298e-10
1.25298e-10
1.25298e-10
1.25299e-10
1.25299e-10
1.25299e-10
1.253e-10
1.253e-10
1.253e-10
1.25301e-10
1.25301e-10
1.25301e-10
1.25302e-10
1.25302e-10
1.25302e-10
1.25303e-10
1.25303e-10
1.25303e-10
1.25304e-10
1.25304e-10
1.25305e-10
1.25305e-10
1.25305e-10
1.25306e-10
1.25306e-10
1.25306e-10
1.25307e-10
1.25307e-10
1.25308e-10
1.25308e-10
1.25308e-10
1.25309e-10
1.25309e-10
1.25309e-10
1.2531e-10
1.2531e-10
1.2531e-10
1.25311e-10
1.25311e-10
1.25311e-10
1.25312e-10
1.25312e-10
1.25312e-10
1.25312e-10
1.25313e-10
1.25313e-10
1.25314e-10
1.25314e-10
1.25314e-10
1.25315e-10
1.25315e-10
1.25315e-10
1.25316e-10
1.25316e-10
1.25317e-10
1.25317e-10
1.25317e-10
1.25318e-10
1.25318e-10
1.25318e-10
1.25319e-10
1.25319e-10
1.25319e-10
1.2532e-10
1.2532e-10
1.2532e-10
1.25321e-10
1.25321e-10
1.25321e-10
1.25322e-10
1.25322e-10
1.25322e-10
1.25323e-10
1.25323e-10
1.25324e-10
1.25324e-10
1.25324e-10
1.25325e-10
1.25325e-10
1.25326e-10
1.25326e-10
1.25327e-10
1.25327e-10
1.25327e-10
1.25328e-10
1.25328e-10
1.25328e-10
1.25329e-10
1.25329e-10
1.25329e-10
1.2533e-10
1.2533e-10
1.25331e-10
1.25331e-10
1.25331e-10
1.25332e-10
1.25332e-10
1.25332e-10
1.25333e-10
1.25333e-10
1.25333e-10
1.25334e-10
1.25334e-10
1.25334e-10
1.25335e-10
1.25335e-10
1.25335e-10
1.25336e-10
1.25336e-10
1.25337e-10
1.25337e-10
1.25337e-10
1.25338e-10
1.25338e-10
1.25338e-10
1.25339e-10
1.25339e-10
1.25339e-10
1.2534e-10
1.2534e-10
1.2534e-10
1.25341e-10
1.25341e-10
1.25342e-10
1.25342e-10
1.25342e-10
1.25343e-10
1.25343e-10
1.25344e-10
1.25344e-10
1.25344e-10
1.25345e-10
1.25345e-10
1.25345e-10
1.25346e-10
1.25346e-10
1.25346e-10
1.25347e-10
1.25347e-10
1.25348e-10
1.25348e-10
1.25348e-10
1.25349e-10
1.25349e-10
1.25349e-10
1.2535e-10
1.2535e-10
1.2535e-10
1.25351e-10
1.25351e-10
1.25352e-10
1.25352e-10
1.25353e-10
1.25353e-10
1.25353e-10
1.25354e-10
1.25354e-10
1.25354e-10
1.25355e-10
1.25355e-10
1.25355e-10
1.25356e-10
1.25356e-10
1.25357e-10
1.25357e-10
1.25357e-10
1.25357e-10
1.25358e-10
1.25358e-10
1.25359e-10
1.25359e-10
1.2536e-10
1.2536e-10
1.2536e-10
1.25361e-10
1.25361e-10
1.25361e-10
1.25362e-10
1.25362e-10
1.25363e-10
1.25363e-10
1.25363e-10
1.25364e-10
1.25364e-10
1.25364e-10
1.25365e-10
1.25365e-10
1.25366e-10
1.25366e-10
1.25366e-10
1.25367e-10
1.25367e-10
1.25367e-10
1.25368e-10
1.25368e-10
1.25368e-10
1.25369e-10
1.25369e-10
1.2537e-10
1.2537e-10
1.2537e-10
1.25371e-10
1.25371e-10
1.25372e-10
1.25372e-10
1.25372e-10
1.25373e-10
1.25373e-10
1.25373e-10
1.25374e-10
1.25374e-10
1.25374e-10
1.25375e-10
1.25375e-10
1.25376e-10
1.25376e-10
1.25376e-10
1.25377e-10
1.25377e-10
1.25377e-10
1.25378e-10
1.25378e-10
1.25379e-10
1.25379e-10
1.25379e-10
1.2538e-10
1.2538e-10
1.25381e-10
1.25381e-10
1.25382e-10
1.25382e-10
1.25382e-10
1.25383e-10
1.25383e-10
1.25383e-10
1.25384e-10
1.25384e-10
1.25384e-10
1.25385e-10
1.25385e-10
1.25385e-10
1.25386e-10
1.25386e-10
1.25387e-10
1.25387e-10
1.25388e-10
1.25388e-10
1.25388e-10
1.25389e-10
1.25389e-10
1.25389e-10
1.2539e-10
1.2539e-10
1.25391e-10
1.25391e-10
1.25391e-10
1.25392e-10
1.25392e-10
1.25392e-10
1.25393e-10
1.25393e-10
1.25393e-10
1.25394e-10
1.25394e-10
1.25395e-10
1.25395e-10
1.25395e-10
1.25396e-10
1.25396e-10
1.25397e-10
1.25397e-10
1.25397e-10
1.25398e-10
1.25398e-10
1.25398e-10
1.25399e-10
1.25399e-10
1.254e-10
1.254e-10
1.254e-10
1.25401e-10
1.25401e-10
1.25401e-10
1.25402e-10
1.25402e-10
1.25403e-10
1.25403e-10
1.25403e-10
1.25404e-10
1.25404e-10
1.25405e-10
1.25405e-10
1.25405e-10
1.25406e-10
1.25406e-10
1.25406e-10
1.25407e-10
1.25407e-10
1.25408e-10
1.25408e-10
1.25408e-10
1.25409e-10
1.25409e-10
1.25409e-10
1.2541e-10
1.2541e-10
1.25411e-10
1.25411e-10
1.25411e-10
1.25412e-10
1.25412e-10
1.25413e-10
1.25413e-10
1.25413e-10
1.25414e-10
1.25414e-10
1.25415e-10
1.25415e-10
1.25415e-10
1.25416e-10
1.25416e-10
1.25416e-10
1.25417e-10
1.25417e-10
1.25418e-10
1.25418e-10
1.25418e-10
1.25419e-10
1.25419e-10
1.25419e-10
1.2542e-10
1.2542e-10
1.25421e-10
1.25421e-10
1.25421e-10
1.25422e-10
1.25422e-10
1.25422e-10
1.25423e-10
1.25423e-10
1.25424e-10
1.25424e-10
1.25424e-10
1.25425e-10
1.25425e-10
1.25425e-10
1.25426e-10
1.25426e-10
1.25427e-10
1.25427e-10
1.25428e-10
1.25428e-10
1.25429e-10
1.25429e-10
1.25429e-10
1.2543e-10
1.2543e-10
1.25431e-10
1.25431e-10
1.25431e-10
1.25432e-10
1.25432e-10
1.25432e-10
1.25433e-10
1.25433e-10
1.25434e-10
1.25434e-10
1.25434e-10
1.25435e-10
1.25435e-10
1.25435e-10
1.25436e-10
1.25436e-10
1.25437e-10
1.25437e-10
1.25437e-10
1.25438e-10
1.25438e-10
1.25438e-10
1.25439e-10
1.25439e-10
1.2544e-10
1.2544e-10
1.2544e-10
1.25441e-10
1.25441e-10
1.25441e-10
1.25442e-10
1.25442e-10
1.25443e-10
1.25443e-10
1.25443e-10
1.25444e-10
1.25444e-10
1.25445e-10
)
;

boundaryField
{
    fixedWall
    {
        type            zeroGradient;
    }
    outlet
    {
        type            inletOutlet;
        inletValue      uniform 0;
        value           uniform 1.25445e-10;
    }
    defaultFaces
    {
        type            empty;
    }
}


// ************************************************************************* //
