/*--------------------------------*- C++ -*----------------------------------*\
| =========                 |                                                 |
| \\      /  F ield         | OpenFOAM: The Open Source CFD Toolbox           |
|  \\    /   O peration     | Version:  2406                                  |
|   \\  /    A nd           | Website:  www.openfoam.com                      |
|    \\/     M anipulation  |                                                 |
\*---------------------------------------------------------------------------*/
FoamFile
{
    version     2.0;
    format      ascii;
    arch        "LSB;label=32;scalar=64";
    class       volScalarField;
    location    "3.1";
    object      H2O;
}
// * * * * * * * * * * * * * * * * * * * * * * * * * * * * * * * * * * * * * //

dimensions      [0 0 0 0 0 0 0];

internalField   nonuniform List<scalar> 
1000
(
0.0580663
0.0580663
0.0580663
0.0580663
0.0580663
0.0580663
0.0580663
0.0580663
0.0580663
0.0580663
0.0580663
0.0580663
0.0580663
0.0580664
0.0580664
0.0580664
0.0580664
0.0580664
0.0580664
0.0580664
0.0580664
0.0580665
0.0580665
0.0580665
0.0580665
0.0580665
0.0580665
0.0580665
0.0580666
0.0580666
0.0580666
0.0580666
0.0580666
0.0580666
0.0580666
0.0580666
0.0580666
0.0580667
0.0580667
0.0580667
0.0580667
0.0580667
0.0580667
0.0580667
0.0580667
0.0580667
0.0580667
0.0580667
0.0580667
0.0580667
0.0580667
0.0580667
0.0580668
0.0580668
0.0580668
0.0580668
0.0580668
0.0580668
0.0580668
0.0580668
0.0580668
0.0580668
0.0580668
0.0580668
0.0580668
0.0580668
0.0580668
0.0580668
0.0580668
0.0580668
0.0580668
0.0580668
0.0580668
0.0580668
0.0580668
0.0580668
0.0580668
0.0580668
0.0580668
0.0580668
0.0580668
0.0580668
0.0580668
0.0580668
0.0580668
0.0580668
0.0580668
0.0580668
0.0580668
0.0580668
0.0580668
0.0580668
0.0580668
0.0580668
0.0580668
0.0580668
0.0580668
0.0580668
0.0580668
0.0580668
0.0580668
0.0580668
0.0580668
0.0580668
0.0580668
0.0580668
0.0580667
0.0580667
0.0580667
0.0580667
0.0580667
0.0580667
0.0580667
0.0580667
0.0580667
0.0580667
0.0580667
0.0580667
0.0580667
0.0580667
0.0580667
0.0580667
0.0580667
0.0580667
0.0580667
0.0580667
0.0580667
0.0580667
0.0580667
0.0580667
0.0580667
0.0580667
0.0580667
0.0580667
0.0580667
0.0580667
0.0580667
0.0580667
0.0580667
0.0580667
0.0580667
0.0580667
0.0580667
0.0580667
0.0580667
0.0580667
0.0580667
0.0580667
0.0580667
0.0580667
0.0580667
0.0580667
0.0580667
0.0580667
0.0580667
0.0580667
0.0580667
0.0580667
0.0580667
0.0580667
0.0580667
0.0580667
0.0580667
0.0580667
0.0580667
0.0580667
0.0580667
0.0580667
0.0580667
0.0580667
0.0580667
0.0580667
0.0580667
0.0580667
0.0580666
0.0580666
0.0580666
0.0580666
0.0580666
0.0580666
0.0580666
0.0580666
0.0580666
0.0580666
0.0580666
0.0580666
0.0580666
0.0580666
0.0580666
0.0580666
0.0580666
0.0580666
0.0580666
0.0580666
0.0580666
0.0580666
0.0580666
0.0580666
0.0580666
0.0580666
0.0580666
0.0580666
0.0580666
0.0580666
0.0580666
0.0580666
0.0580666
0.0580666
0.0580666
0.0580666
0.0580666
0.0580666
0.0580666
0.0580666
0.0580666
0.0580666
0.0580666
0.0580666
0.0580666
0.0580666
0.0580666
0.0580666
0.0580665
0.0580665
0.0580665
0.0580665
0.0580665
0.0580665
0.0580665
0.0580665
0.0580665
0.0580665
0.0580665
0.0580665
0.0580665
0.0580665
0.0580665
0.0580665
0.0580665
0.0580665
0.0580665
0.0580665
0.0580665
0.0580665
0.0580665
0.0580665
0.0580665
0.0580665
0.0580665
0.0580665
0.0580665
0.0580665
0.0580665
0.0580665
0.0580665
0.0580665
0.0580665
0.0580664
0.0580664
0.0580664
0.0580664
0.0580664
0.0580664
0.0580664
0.0580664
0.0580664
0.0580664
0.0580664
0.0580664
0.0580664
0.0580664
0.0580664
0.0580664
0.0580664
0.0580664
0.0580664
0.0580664
0.0580664
0.0580664
0.0580664
0.0580664
0.0580664
0.0580664
0.0580663
0.0580663
0.0580663
0.0580663
0.0580663
0.0580663
0.0580663
0.0580663
0.0580663
0.0580663
0.0580663
0.0580663
0.0580663
0.0580663
0.0580663
0.0580663
0.0580663
0.0580663
0.0580663
0.0580663
0.0580663
0.0580662
0.0580662
0.0580662
0.0580662
0.0580662
0.0580662
0.0580662
0.0580662
0.0580662
0.0580662
0.0580662
0.0580662
0.0580662
0.0580662
0.0580662
0.0580662
0.0580662
0.0580661
0.0580661
0.0580661
0.0580661
0.0580661
0.0580661
0.0580661
0.0580661
0.0580661
0.0580661
0.0580661
0.0580661
0.0580661
0.0580661
0.058066
0.058066
0.058066
0.058066
0.058066
0.058066
0.058066
0.058066
0.058066
0.058066
0.058066
0.058066
0.0580659
0.0580659
0.0580659
0.0580659
0.0580659
0.0580659
0.0580659
0.0580659
0.0580659
0.0580659
0.0580658
0.0580658
0.0580658
0.0580658
0.0580658
0.0580658
0.0580658
0.0580658
0.0580658
0.0580657
0.0580657
0.0580657
0.0580657
0.0580657
0.0580657
0.0580657
0.0580656
0.0580656
0.0580656
0.0580656
0.0580656
0.0580656
0.0580656
0.0580655
0.0580655
0.0580655
0.0580655
0.0580655
0.0580655
0.0580654
0.0580654
0.0580654
0.0580654
0.0580654
0.0580653
0.0580653
0.0580653
0.0580653
0.0580653
0.0580652
0.0580652
0.0580652
0.0580652
0.0580651
0.0580651
0.0580651
0.0580651
0.058065
0.058065
0.058065
0.058065
0.0580649
0.0580649
0.0580649
0.0580648
0.0580648
0.0580648
0.0580647
0.0580647
0.0580646
0.0580646
0.0580646
0.0580645
0.0580645
0.0580644
0.0580644
0.0580644
0.0580643
0.0580643
0.0580642
0.0580641
0.0580641
0.058064
0.058064
0.0580639
0.0580639
0.0580638
0.0580637
0.0580636
0.0580636
0.0580635
0.0580634
0.0580633
0.0580632
0.0580631
0.058063
0.0580629
0.0580628
0.0580627
0.0580626
0.0580624
0.0580623
0.0580622
0.058062
0.0580619
0.0580617
0.0580615
0.0580613
0.0580611
0.0580609
0.0580607
0.0580604
0.0580602
0.0580599
0.0580596
0.0580592
0.0580589
0.0580584
0.058058
0.0580575
0.058057
0.0580563
0.0580557
0.0580549
0.058054
0.058053
0.0580518
0.0580504
0.0580488
0.0580468
0.0580444
0.0580414
0.0580377
0.0580328
0.0580263
0.0580171
0.0580035
0.0579825
0.0579477
0.0578847
0.0577519
0.0573999
0.0562183
0.0511693
0.0235892
0.0110952
0.00534884
0.00261864
0.00129328
0.00064174
0.000319213
0.000158971
7.92114e-05
3.94782e-05
1.96779e-05
9.80944e-06
4.89075e-06
2.43893e-06
1.21658e-06
6.07058e-07
3.03027e-07
1.51338e-07
7.56232e-08
3.78215e-08
1.8951e-08
9.52361e-09
4.78488e-09
2.46328e-09
1.30642e-09
7.88375e-10
5.52082e-10
3.21633e-10
2.24284e-10
1.66551e-10
1.34566e-10
1.22747e-10
1.14874e-10
1.09197e-10
1.05947e-10
1.04336e-10
1.03521e-10
1.03088e-10
1.02882e-10
1.02749e-10
1.02671e-10
1.02619e-10
1.02594e-10
1.02581e-10
1.02572e-10
1.02567e-10
1.02565e-10
1.02563e-10
1.02563e-10
1.02562e-10
1.02562e-10
1.02562e-10
1.02562e-10
1.02563e-10
1.02563e-10
1.02563e-10
1.02563e-10
1.02564e-10
1.02564e-10
1.02564e-10
1.02564e-10
1.02565e-10
1.02565e-10
1.02565e-10
1.02566e-10
1.02566e-10
1.02566e-10
1.02567e-10
1.02567e-10
1.02567e-10
1.02567e-10
1.02568e-10
1.02568e-10
1.02568e-10
1.02568e-10
1.02569e-10
1.02569e-10
1.02569e-10
1.0257e-10
1.0257e-10
1.0257e-10
1.02571e-10
1.02571e-10
1.02571e-10
1.02571e-10
1.02572e-10
1.02572e-10
1.02572e-10
1.02573e-10
1.02573e-10
1.02573e-10
1.02573e-10
1.02574e-10
1.02574e-10
1.02574e-10
1.02575e-10
1.02575e-10
1.02575e-10
1.02575e-10
1.02576e-10
1.02576e-10
1.02576e-10
1.02576e-10
1.02577e-10
1.02577e-10
1.02577e-10
1.02578e-10
1.02578e-10
1.02578e-10
1.02579e-10
1.02579e-10
1.02579e-10
1.02579e-10
1.0258e-10
1.0258e-10
1.0258e-10
1.02581e-10
1.02581e-10
1.02581e-10
1.02581e-10
1.02582e-10
1.02582e-10
1.02582e-10
1.02583e-10
1.02583e-10
1.02583e-10
1.02583e-10
1.02584e-10
1.02584e-10
1.02584e-10
1.02584e-10
1.02585e-10
1.02585e-10
1.02585e-10
1.02586e-10
1.02586e-10
1.02586e-10
1.02587e-10
1.02587e-10
1.02587e-10
1.02588e-10
1.02588e-10
1.02588e-10
1.02588e-10
1.02589e-10
1.02589e-10
1.02589e-10
1.0259e-10
1.0259e-10
1.0259e-10
1.0259e-10
1.02591e-10
1.02591e-10
1.02591e-10
1.02592e-10
1.02592e-10
1.02592e-10
1.02592e-10
1.02593e-10
1.02593e-10
1.02593e-10
1.02594e-10
1.02594e-10
1.02594e-10
1.02594e-10
1.02595e-10
1.02595e-10
1.02595e-10
1.02596e-10
1.02596e-10
1.02596e-10
1.02596e-10
1.02597e-10
1.02597e-10
1.02597e-10
1.02598e-10
1.02598e-10
1.02598e-10
1.02598e-10
1.02599e-10
1.02599e-10
1.02599e-10
1.026e-10
1.026e-10
1.026e-10
1.026e-10
1.02601e-10
1.02601e-10
1.02601e-10
1.02602e-10
1.02602e-10
1.02602e-10
1.02603e-10
1.02603e-10
1.02603e-10
1.02604e-10
1.02604e-10
1.02604e-10
1.02605e-10
1.02605e-10
1.02605e-10
1.02605e-10
1.02606e-10
1.02606e-10
1.02606e-10
1.02607e-10
1.02607e-10
1.02607e-10
1.02608e-10
1.02608e-10
1.02608e-10
1.02608e-10
1.02609e-10
1.02609e-10
1.02609e-10
1.0261e-10
1.0261e-10
1.0261e-10
1.0261e-10
1.02611e-10
1.02611e-10
1.02611e-10
1.02612e-10
1.02612e-10
1.02612e-10
1.02612e-10
1.02613e-10
1.02613e-10
1.02613e-10
1.02614e-10
1.02614e-10
1.02614e-10
1.02614e-10
1.02615e-10
1.02615e-10
1.02615e-10
1.02616e-10
1.02616e-10
1.02616e-10
1.02617e-10
1.02617e-10
1.02617e-10
1.02618e-10
1.02618e-10
1.02618e-10
1.02619e-10
1.02619e-10
1.02619e-10
1.0262e-10
1.0262e-10
1.0262e-10
1.0262e-10
1.02621e-10
1.02621e-10
1.02621e-10
1.02622e-10
1.02622e-10
1.02622e-10
1.02622e-10
1.02623e-10
1.02623e-10
1.02623e-10
1.02624e-10
1.02624e-10
1.02624e-10
1.02625e-10
1.02625e-10
1.02625e-10
1.02626e-10
1.02626e-10
1.02626e-10
1.02627e-10
1.02627e-10
1.02627e-10
1.02627e-10
1.02628e-10
1.02628e-10
1.02628e-10
1.02629e-10
1.02629e-10
1.02629e-10
1.02629e-10
1.0263e-10
1.0263e-10
1.02631e-10
1.02631e-10
1.02631e-10
1.02631e-10
1.02632e-10
1.02632e-10
1.02632e-10
1.02633e-10
1.02633e-10
1.02633e-10
1.02633e-10
1.02634e-10
1.02634e-10
1.02635e-10
1.02635e-10
1.02635e-10
1.02635e-10
1.02636e-10
1.02636e-10
1.02636e-10
1.02637e-10
1.02637e-10
1.02637e-10
1.02638e-10
1.02638e-10
1.02638e-10
1.02638e-10
1.02639e-10
1.02639e-10
1.02639e-10
1.0264e-10
1.0264e-10
1.0264e-10
1.02641e-10
1.02641e-10
1.02641e-10
1.02642e-10
1.02642e-10
1.02642e-10
1.02642e-10
1.02643e-10
1.02643e-10
1.02643e-10
1.02644e-10
1.02644e-10
1.02644e-10
1.02645e-10
1.02645e-10
1.02645e-10
1.02645e-10
1.02646e-10
1.02646e-10
1.02646e-10
1.02647e-10
1.02647e-10
1.02647e-10
1.02648e-10
1.02648e-10
1.02648e-10
1.02649e-10
1.02649e-10
1.02649e-10
1.0265e-10
1.0265e-10
1.0265e-10
1.02651e-10
1.02651e-10
1.02651e-10
1.02652e-10
1.02652e-10
1.02652e-10
1.02652e-10
1.02653e-10
1.02653e-10
1.02653e-10
1.02654e-10
1.02654e-10
1.02654e-10
1.02655e-10
1.02655e-10
1.02655e-10
1.02656e-10
1.02656e-10
1.02656e-10
1.02656e-10
1.02657e-10
1.02657e-10
1.02657e-10
1.02658e-10
1.02658e-10
1.02658e-10
1.02658e-10
1.02659e-10
1.02659e-10
1.02659e-10
1.0266e-10
1.0266e-10
1.0266e-10
1.02661e-10
1.02661e-10
1.02661e-10
1.02662e-10
1.02662e-10
1.02662e-10
1.02663e-10
1.02663e-10
1.02663e-10
1.02663e-10
1.02664e-10
1.02664e-10
1.02664e-10
1.02665e-10
1.02665e-10
1.02665e-10
1.02666e-10
1.02666e-10
1.02666e-10
1.02667e-10
1.02667e-10
1.02667e-10
1.02668e-10
1.02668e-10
1.02668e-10
1.02669e-10
1.02669e-10
1.02669e-10
1.02669e-10
1.0267e-10
1.0267e-10
1.0267e-10
1.02671e-10
1.02671e-10
1.02671e-10
1.02672e-10
1.02672e-10
1.02672e-10
1.02673e-10
1.02673e-10
1.02673e-10
1.02674e-10
1.02674e-10
1.02674e-10
1.02675e-10
1.02675e-10
1.02675e-10
1.02676e-10
1.02676e-10
1.02676e-10
1.02676e-10
1.02677e-10
1.02677e-10
1.02677e-10
1.02678e-10
1.02678e-10
1.02678e-10
1.02679e-10
1.02679e-10
1.02679e-10
1.0268e-10
1.0268e-10
1.0268e-10
1.0268e-10
1.02681e-10
1.02681e-10
1.02681e-10
1.02682e-10
1.02682e-10
1.02682e-10
1.02683e-10
1.02683e-10
1.02683e-10
1.02683e-10
1.02684e-10
1.02684e-10
1.02684e-10
1.02685e-10
1.02685e-10
1.02685e-10
1.02686e-10
1.02686e-10
1.02687e-10
1.02687e-10
1.02687e-10
1.02688e-10
1.02688e-10
1.02688e-10
1.02689e-10
1.02689e-10
1.02689e-10
1.0269e-10
1.0269e-10
1.0269e-10
1.0269e-10
1.02691e-10
1.02691e-10
1.02691e-10
1.02692e-10
1.02692e-10
1.02692e-10
1.02693e-10
1.02693e-10
1.02693e-10
1.02694e-10
1.02694e-10
1.02694e-10
1.02694e-10
1.02695e-10
1.02695e-10
1.02695e-10
1.02696e-10
1.02696e-10
1.02696e-10
1.02696e-10
1.02697e-10
1.02697e-10
1.02698e-10
1.02698e-10
1.02698e-10
1.02698e-10
1.02699e-10
1.02699e-10
1.02699e-10
1.027e-10
1.027e-10
1.027e-10
)
;

boundaryField
{
    fixedWall
    {
        type            zeroGradient;
    }
    outlet
    {
        type            inletOutlet;
        inletValue      uniform 0;
        value           uniform 1.027e-10;
    }
    defaultFaces
    {
        type            empty;
    }
}


// ************************************************************************* //
