/*--------------------------------*- C++ -*----------------------------------*\
| =========                 |                                                 |
| \\      /  F ield         | OpenFOAM: The Open Source CFD Toolbox           |
|  \\    /   O peration     | Version:  2406                                  |
|   \\  /    A nd           | Website:  www.openfoam.com                      |
|    \\/     M anipulation  |                                                 |
\*---------------------------------------------------------------------------*/
FoamFile
{
    version     2.0;
    format      ascii;
    arch        "LSB;label=32;scalar=64";
    class       volScalarField;
    location    "3.1";
    object      O2;
}
// * * * * * * * * * * * * * * * * * * * * * * * * * * * * * * * * * * * * * //

dimensions      [0 0 0 0 0 0 0];

internalField   nonuniform List<scalar> 
1000
(
1.64181e-06
1.63811e-06
1.63173e-06
1.62325e-06
1.61301e-06
1.60126e-06
1.58815e-06
1.57382e-06
1.55838e-06
1.5419e-06
1.52447e-06
1.50614e-06
1.48699e-06
1.46706e-06
1.44643e-06
1.42514e-06
1.40327e-06
1.38088e-06
1.35804e-06
1.33482e-06
1.3113e-06
1.28756e-06
1.26368e-06
1.23975e-06
1.21584e-06
1.19205e-06
1.16844e-06
1.14511e-06
1.12212e-06
1.09954e-06
1.07744e-06
1.05587e-06
1.0349e-06
1.01456e-06
9.94895e-07
9.75938e-07
9.57717e-07
9.40252e-07
9.23557e-07
9.07642e-07
8.9251e-07
8.78161e-07
8.6459e-07
8.51788e-07
8.39743e-07
8.2844e-07
8.17862e-07
8.07988e-07
7.98797e-07
7.90266e-07
7.82372e-07
7.75089e-07
7.68392e-07
7.62257e-07
7.56656e-07
7.51565e-07
7.46959e-07
7.42812e-07
7.39099e-07
7.35798e-07
7.32884e-07
7.30336e-07
7.28131e-07
7.26249e-07
7.2467e-07
7.23374e-07
7.22343e-07
7.21559e-07
7.21007e-07
7.20671e-07
7.20535e-07
7.20584e-07
7.20806e-07
7.21188e-07
7.21718e-07
7.22386e-07
7.23181e-07
7.24093e-07
7.25114e-07
7.26235e-07
7.27448e-07
7.28746e-07
7.30122e-07
7.31569e-07
7.33083e-07
7.34658e-07
7.36289e-07
7.3797e-07
7.39699e-07
7.41472e-07
7.43284e-07
7.45132e-07
7.47014e-07
7.48928e-07
7.5087e-07
7.52838e-07
7.54831e-07
7.56846e-07
7.58883e-07
7.60939e-07
7.63014e-07
7.65106e-07
7.67213e-07
7.69337e-07
7.71474e-07
7.73626e-07
7.7579e-07
7.77967e-07
7.80151e-07
7.82331e-07
7.84547e-07
7.86776e-07
7.89014e-07
7.91263e-07
7.93522e-07
7.9579e-07
7.98069e-07
8.00359e-07
8.02658e-07
8.04968e-07
8.07288e-07
8.09618e-07
8.11959e-07
8.14311e-07
8.16674e-07
8.19048e-07
8.21433e-07
8.23829e-07
8.26237e-07
8.28657e-07
8.31088e-07
8.33531e-07
8.35987e-07
8.38455e-07
8.40936e-07
8.43429e-07
8.45936e-07
8.48455e-07
8.50988e-07
8.53535e-07
8.56095e-07
8.5867e-07
8.61258e-07
8.63861e-07
8.66479e-07
8.69111e-07
8.71758e-07
8.7442e-07
8.77098e-07
8.79791e-07
8.82499e-07
8.85224e-07
8.87965e-07
8.90722e-07
8.93495e-07
8.96285e-07
8.99092e-07
9.01916e-07
9.04758e-07
9.07617e-07
9.10494e-07
9.13389e-07
9.16302e-07
9.19233e-07
9.22183e-07
9.25152e-07
9.2814e-07
9.31147e-07
9.34173e-07
9.37219e-07
9.40284e-07
9.4337e-07
9.46476e-07
9.49602e-07
9.52749e-07
9.55916e-07
9.59105e-07
9.62315e-07
9.65546e-07
9.68799e-07
9.72074e-07
9.75371e-07
9.78691e-07
9.82033e-07
9.85398e-07
9.88786e-07
9.92197e-07
9.95632e-07
9.99091e-07
1.00257e-06
1.00608e-06
1.00961e-06
1.01317e-06
1.01675e-06
1.02036e-06
1.02399e-06
1.02765e-06
1.03134e-06
1.03505e-06
1.03878e-06
1.04255e-06
1.04634e-06
1.05016e-06
1.05401e-06
1.05788e-06
1.06179e-06
1.06572e-06
1.06968e-06
1.07367e-06
1.07769e-06
1.08174e-06
1.08582e-06
1.08992e-06
1.09406e-06
1.09823e-06
1.10244e-06
1.10667e-06
1.11093e-06
1.11523e-06
1.11956e-06
1.12392e-06
1.12832e-06
1.13275e-06
1.13721e-06
1.14171e-06
1.14624e-06
1.1508e-06
1.1554e-06
1.16004e-06
1.16471e-06
1.16942e-06
1.17417e-06
1.17895e-06
1.18378e-06
1.18863e-06
1.19353e-06
1.19847e-06
1.20345e-06
1.20847e-06
1.21353e-06
1.21863e-06
1.22377e-06
1.22895e-06
1.23418e-06
1.23945e-06
1.24477e-06
1.25013e-06
1.25554e-06
1.26099e-06
1.26649e-06
1.27204e-06
1.27763e-06
1.28327e-06
1.28897e-06
1.29471e-06
1.3005e-06
1.30635e-06
1.31225e-06
1.3182e-06
1.3242e-06
1.33026e-06
1.33637e-06
1.34254e-06
1.34876e-06
1.35504e-06
1.36138e-06
1.36778e-06
1.37423e-06
1.38075e-06
1.38732e-06
1.39396e-06
1.40066e-06
1.40742e-06
1.41424e-06
1.42113e-06
1.42809e-06
1.43511e-06
1.44219e-06
1.44935e-06
1.45657e-06
1.46386e-06
1.47123e-06
1.47867e-06
1.48617e-06
1.49376e-06
1.50142e-06
1.50915e-06
1.51696e-06
1.52485e-06
1.53283e-06
1.54088e-06
1.549e-06
1.55714e-06
1.56544e-06
1.57384e-06
1.58233e-06
1.59091e-06
1.59958e-06
1.60835e-06
1.61721e-06
1.62616e-06
1.63522e-06
1.64438e-06
1.65364e-06
1.663e-06
1.67247e-06
1.68205e-06
1.69174e-06
1.70154e-06
1.71146e-06
1.72149e-06
1.73165e-06
1.74192e-06
1.75232e-06
1.76285e-06
1.7735e-06
1.78429e-06
1.79521e-06
1.80627e-06
1.81746e-06
1.8288e-06
1.84028e-06
1.85191e-06
1.86369e-06
1.87562e-06
1.88771e-06
1.89995e-06
1.91236e-06
1.92494e-06
1.93768e-06
1.95059e-06
1.96368e-06
1.97694e-06
1.99039e-06
2.00402e-06
2.01784e-06
2.03186e-06
2.04606e-06
2.06047e-06
2.07508e-06
2.0899e-06
2.10493e-06
2.12018e-06
2.13565e-06
2.15134e-06
2.16726e-06
2.18341e-06
2.19981e-06
2.21644e-06
2.23333e-06
2.25046e-06
2.26785e-06
2.28551e-06
2.30344e-06
2.32163e-06
2.34011e-06
2.35888e-06
2.37793e-06
2.39729e-06
2.41695e-06
2.43693e-06
2.45722e-06
2.47785e-06
2.49881e-06
2.52011e-06
2.54178e-06
2.5638e-06
2.5862e-06
2.60899e-06
2.63217e-06
2.65576e-06
2.67976e-06
2.7042e-06
2.72908e-06
2.75442e-06
2.78023e-06
2.80652e-06
2.83331e-06
2.86061e-06
2.88844e-06
2.91681e-06
2.94574e-06
2.97525e-06
3.00535e-06
3.03606e-06
3.0674e-06
3.09939e-06
3.13205e-06
3.16539e-06
3.19945e-06
3.23424e-06
3.26979e-06
3.30613e-06
3.34327e-06
3.38126e-06
3.42011e-06
3.45986e-06
3.50054e-06
3.54218e-06
3.58483e-06
3.62851e-06
3.67327e-06
3.71914e-06
3.76617e-06
3.8144e-06
3.86388e-06
3.91466e-06
3.9665e-06
4.01949e-06
4.07452e-06
4.13104e-06
4.1891e-06
4.24876e-06
4.3101e-06
4.37318e-06
4.43808e-06
4.50489e-06
4.57368e-06
4.64454e-06
4.71757e-06
4.79225e-06
4.86915e-06
4.94947e-06
5.03253e-06
5.11813e-06
5.20596e-06
5.29762e-06
5.39253e-06
5.49096e-06
5.59315e-06
5.69933e-06
5.80976e-06
5.92469e-06
6.04441e-06
6.16921e-06
6.2994e-06
6.4353e-06
6.57727e-06
6.72568e-06
6.88091e-06
7.04338e-06
7.21355e-06
7.3919e-06
7.57895e-06
7.77527e-06
7.98149e-06
8.19828e-06
8.42639e-06
8.66665e-06
8.91997e-06
9.18735e-06
9.46993e-06
9.76873e-06
1.00819e-05
1.04177e-05
1.07753e-05
1.11571e-05
1.15657e-05
1.20044e-05
1.24768e-05
1.29874e-05
1.35412e-05
1.41441e-05
1.48027e-05
1.55246e-05
1.63192e-05
1.7197e-05
1.81716e-05
1.92591e-05
2.04802e-05
2.18478e-05
2.34222e-05
2.52309e-05
2.73305e-05
2.97953e-05
3.27215e-05
3.62355e-05
4.05076e-05
4.5781e-05
5.24275e-05
6.10498e-05
7.26588e-05
8.89833e-05
0.000113058
0.000150456
0.00021228
0.000324192
0.000559937
0.0011852
0.00328405
0.012252
0.0612398
0.0834317
0.0936384
0.0984878
0.100842
0.101999
0.102572
0.102857
0.102998
0.103069
0.103104
0.103122
0.10313
0.103135
0.103137
0.103138
0.103138
0.103139
0.103139
0.103139
0.103139
0.103139
0.103139
0.103139
0.103139
0.103139
0.103139
0.103139
0.103139
0.103139
0.103139
0.103139
0.103139
0.103139
0.103139
0.103139
0.103139
0.103139
0.103139
0.103139
0.103139
0.103139
0.103139
0.103139
0.103139
0.103139
0.103139
0.103139
0.103139
0.103139
0.103139
0.103139
0.103139
0.103139
0.103139
0.103139
0.103139
0.103139
0.103139
0.103139
0.103139
0.103139
0.103139
0.103139
0.103139
0.103139
0.103139
0.103139
0.103139
0.103139
0.103139
0.103139
0.103139
0.103139
0.103139
0.103139
0.103139
0.103139
0.103139
0.103139
0.103139
0.103139
0.103139
0.103139
0.103139
0.103139
0.103139
0.103139
0.103139
0.103139
0.103139
0.103139
0.103139
0.103139
0.103139
0.103139
0.103139
0.103139
0.103139
0.103139
0.103139
0.103139
0.103139
0.103139
0.103139
0.103139
0.103139
0.103139
0.103139
0.103139
0.103139
0.103139
0.103139
0.103139
0.103139
0.103139
0.103139
0.103139
0.103139
0.103139
0.103139
0.103139
0.103139
0.103139
0.103139
0.103139
0.103139
0.103139
0.103139
0.103139
0.103139
0.103139
0.103139
0.103139
0.103139
0.103139
0.103139
0.103139
0.103139
0.103139
0.103139
0.103139
0.103139
0.103139
0.103139
0.103139
0.103139
0.103139
0.103139
0.103139
0.103139
0.103139
0.103139
0.103139
0.103139
0.103139
0.103139
0.103139
0.103139
0.103139
0.103139
0.103139
0.103139
0.103139
0.103139
0.103139
0.103139
0.103139
0.103139
0.103139
0.103139
0.103139
0.103139
0.103139
0.103139
0.103139
0.103139
0.103139
0.103139
0.103139
0.103139
0.103139
0.103139
0.103139
0.103139
0.103139
0.103139
0.103139
0.103139
0.103139
0.103139
0.103139
0.103139
0.103139
0.103139
0.103139
0.103139
0.103139
0.103139
0.103139
0.103139
0.103139
0.103139
0.103139
0.103139
0.103139
0.103139
0.103139
0.103139
0.103139
0.103139
0.103139
0.103139
0.103139
0.103139
0.103139
0.103139
0.103139
0.103139
0.103139
0.103139
0.103139
0.103139
0.103139
0.103139
0.103139
0.103139
0.103139
0.103139
0.103139
0.103139
0.103139
0.103139
0.103139
0.103139
0.103139
0.103139
0.103139
0.103139
0.103139
0.103139
0.103139
0.103139
0.103139
0.103139
0.103139
0.103139
0.103139
0.103139
0.103139
0.103139
0.103139
0.103139
0.103139
0.103139
0.103139
0.103139
0.103139
0.103139
0.103139
0.103139
0.103139
0.103139
0.103139
0.103139
0.103139
0.103139
0.103139
0.103139
0.103139
0.103139
0.103139
0.103139
0.103139
0.103139
0.103139
0.103139
0.103139
0.103139
0.103139
0.103139
0.103139
0.103139
0.103139
0.103139
0.103139
0.103139
0.103139
0.103139
0.103139
0.103139
0.103139
0.103139
0.103139
0.103139
0.103139
0.103139
0.103139
0.103139
0.103139
0.103139
0.103139
0.103139
0.103139
0.103139
0.103139
0.103139
0.103139
0.103139
0.103139
0.103139
0.103139
0.103139
0.103139
0.103139
0.103139
0.103139
0.103139
0.103139
0.103139
0.103139
0.103139
0.103139
0.103139
0.103139
0.103139
0.103139
0.103139
0.103139
0.103139
0.103139
0.103139
0.103139
0.103139
0.103139
0.103139
0.103139
0.103139
0.103139
0.103139
0.103139
0.103139
0.103139
0.103139
0.103139
0.103139
0.103139
0.103139
0.103139
0.103139
0.103139
0.103139
0.103139
0.103139
0.103139
0.103139
0.103139
0.103139
0.103139
0.103139
0.103139
0.103139
0.103139
0.103139
0.103139
0.103139
0.103139
0.103139
0.103139
0.103139
0.103139
0.103139
0.103139
0.103139
0.103139
0.103139
0.103139
0.103139
0.103139
0.103139
0.103139
0.103139
0.103139
0.103139
0.103139
0.103139
0.103139
0.103139
0.103139
0.103139
0.103139
0.103139
0.103139
0.103139
0.103139
0.103139
0.103139
0.103139
0.103139
0.103139
0.103139
0.103139
0.103139
0.103139
0.103139
0.103139
0.103139
0.103139
0.103139
0.103139
0.103139
0.103139
0.103139
0.103139
0.103139
0.103139
0.103139
0.103139
0.103139
0.103139
0.103139
0.103139
0.103139
0.103139
0.103139
0.103139
0.103139
0.103139
0.103139
0.103139
0.103139
0.103139
0.103139
0.103139
0.103139
0.103139
0.103139
0.103139
0.103139
0.103139
0.103139
0.103139
0.103139
0.103139
0.103139
0.103139
0.103139
0.103139
0.103139
0.103139
0.103139
0.103139
0.103139
0.103139
0.103139
0.103139
0.103139
0.103139
0.103139
0.103139
0.103139
0.103139
0.103139
0.103139
0.103139
0.103139
0.103139
0.103139
0.103139
0.103139
0.103139
0.103139
0.103139
0.103139
0.103139
0.103139
0.103139
0.103139
0.103139
0.103139
0.103139
0.103139
0.103139
0.103139
0.103139
0.103139
0.103139
0.103139
0.103139
0.103139
0.103139
0.103139
0.103139
0.103139
0.103139
0.103139
0.103139
0.103139
0.103139
0.103139
0.103139
0.103139
0.103139
0.103139
0.103139
0.103139
0.103139
0.103139
0.103139
)
;

boundaryField
{
    fixedWall
    {
        type            zeroGradient;
    }
    outlet
    {
        type            inletOutlet;
        inletValue      uniform 0;
        value           uniform 0.103139;
    }
    defaultFaces
    {
        type            empty;
    }
}


// ************************************************************************* //
