/*--------------------------------*- C++ -*----------------------------------*\
| =========                 |                                                 |
| \\      /  F ield         | OpenFOAM: The Open Source CFD Toolbox           |
|  \\    /   O peration     | Version:  2406                                  |
|   \\  /    A nd           | Website:  www.openfoam.com                      |
|    \\/     M anipulation  |                                                 |
\*---------------------------------------------------------------------------*/
FoamFile
{
    version     2.0;
    format      ascii;
    arch        "LSB;label=32;scalar=64";
    class       volScalarField;
    location    "3.1";
    object      Qdot;
}
// * * * * * * * * * * * * * * * * * * * * * * * * * * * * * * * * * * * * * //

dimensions      [1 -1 -3 0 0 0 0];

internalField   nonuniform List<scalar> 
1000
(
-3.14777e-08
-5.7089e-08
-7.32214e-14
4.4893e-07
3.73776e-06
1.93389e-05
7.39533e-05
0.000226576
0.000584924
0.00131928
0.00266874
0.00493758
0.0084816
0.0136851
0.0209334
0.030583
0.0429334
0.0582039
0.0765169
0.0978886
0.122229
0.149345
0.178958
0.210714
0.244207
0.278999
0.314638
0.350679
0.386697
0.422301
0.457146
0.490936
0.523427
0.554431
0.58381
0.611478
0.637389
0.661539
0.683954
0.704688
0.723816
0.74143
0.757631
0.772527
0.786231
0.798854
0.810507
0.821294
0.831316
0.840668
0.849435
0.857698
0.865529
0.872992
0.880145
0.887039
0.89372
0.900226
0.906591
0.912843
0.919008
0.925105
0.931152
0.937164
0.943152
0.949125
0.955091
0.961056
0.967023
0.972985
0.978926
0.984926
0.99094
0.996969
1.00301
1.00907
1.01514
1.02123
1.02733
1.03345
1.03958
1.04573
1.05189
1.05807
1.06426
1.07047
1.0767
1.08294
1.0892
1.09549
1.10179
1.10811
1.11446
1.12083
1.12722
1.13364
1.14009
1.14657
1.15307
1.1596
1.16617
1.17277
1.1794
1.18607
1.19278
1.19952
1.20631
1.21313
1.21997
1.22682
1.23378
1.24079
1.24785
1.25495
1.2621
1.26929
1.27654
1.28383
1.29118
1.29858
1.30603
1.31354
1.32111
1.32873
1.33641
1.34415
1.35196
1.35982
1.36775
1.37574
1.38379
1.39191
1.4001
1.40836
1.41668
1.42507
1.43354
1.44208
1.45069
1.45937
1.46813
1.47696
1.48588
1.49487
1.50393
1.51308
1.52231
1.53162
1.54102
1.5505
1.56006
1.56971
1.57945
1.58928
1.5992
1.6092
1.61931
1.6295
1.63979
1.65017
1.66066
1.67124
1.68192
1.6927
1.70359
1.71458
1.72568
1.73688
1.74819
1.75961
1.77114
1.78279
1.79455
1.80642
1.81841
1.83052
1.84275
1.8551
1.86757
1.88017
1.8929
1.90575
1.91874
1.93186
1.94511
1.95849
1.97202
1.98568
1.99949
2.01344
2.02753
2.04177
2.05616
2.07071
2.0854
2.10026
2.11527
2.13044
2.14577
2.16127
2.17694
2.19277
2.20878
2.22496
2.24132
2.25786
2.27457
2.29148
2.30857
2.32585
2.34332
2.36099
2.37885
2.39692
2.41519
2.43366
2.45235
2.47124
2.49036
2.50969
2.52924
2.54902
2.56903
2.58926
2.60974
2.63045
2.65141
2.67261
2.69406
2.71576
2.73773
2.75995
2.78245
2.80521
2.82825
2.85157
2.87517
2.89906
2.92325
2.94773
2.97252
2.99762
3.02304
3.04877
3.07483
3.10123
3.12796
3.15503
3.18246
3.21024
3.23838
3.2669
3.29578
3.32506
3.35472
3.38477
3.41523
3.44611
3.47739
3.50911
3.54126
3.57384
3.60688
3.64037
3.67433
3.70876
3.74367
3.77907
3.81496
3.85137
3.88829
3.92574
3.96372
4.00225
4.04133
4.08098
4.1212
4.16202
4.20343
4.24545
4.28809
4.33137
4.37529
4.41988
4.46513
4.51107
4.55772
4.60507
4.65316
4.70199
4.75157
4.80189
4.85249
4.9045
4.95734
5.01103
5.0656
5.12106
5.17743
5.23473
5.29298
5.3522
5.41241
5.47365
5.53592
5.59927
5.66371
5.72927
5.79598
5.86386
5.93295
6.00328
6.07487
6.14776
6.22198
6.29756
6.37455
6.45296
6.53285
6.61424
6.69718
6.7817
6.86785
6.95567
7.0452
7.13648
7.22957
7.3245
7.42133
7.5201
7.62087
7.72368
7.8286
7.93568
8.04498
8.15655
8.27046
8.38676
8.50554
8.62685
8.75076
8.87734
9.00668
9.13884
9.27392
9.41198
9.55311
9.69741
9.84496
9.99585
10.1502
10.3081
10.4696
10.6349
10.804
10.9771
11.1543
11.3358
11.5216
11.7119
11.9069
12.1066
12.3113
12.5212
12.7363
12.9569
13.1832
13.4153
13.6536
13.8981
14.1492
14.407
14.6719
14.9441
15.2238
15.5114
15.8072
16.1114
16.4245
16.7467
17.0784
17.42
17.7719
18.1346
18.5083
18.8937
19.2912
19.7012
20.1244
20.5613
21.0125
21.4786
21.9603
22.4582
22.9733
23.5061
24.0577
24.6288
25.2204
25.8335
26.4692
27.1286
27.8128
28.5232
29.261
30.0278
30.8251
31.6493
32.5036
33.4032
34.3395
35.3148
36.3313
37.3915
38.4979
39.6531
40.8602
42.1222
43.4426
44.8251
46.2602
47.7624
49.3575
51.0335
52.797
54.6316
56.5787
58.6318
60.8002
63.0934
65.5211
68.0945
70.8253
73.7267
76.8129
80.0994
83.6034
87.3434
91.34
95.6158
100.196
105.107
110.382
116.053
122.159
128.743
135.853
143.545
151.881
160.93
170.773
181.502
193.221
205.897
219.94
235.431
252.57
271.597
292.811
316.572
343.317
373.579
408.001
447.367
492.643
545.022
606.013
677.55
762.161
863.113
983.838
1132.73
1316.83
1548.23
1844.32
2230.44
2744
3441.58
4412.6
5807.93
7902.75
11238.1
16958
27688.4
50101.8
103196
247957
714411
2.44238e+06
9.68874e+06
5.69051e+07
674751
2264.89
12.4525
0.252527
0.0198116
0.00431705
0.00181454
0.00112383
0.000865947
0.000752403
0.000697691
0.000670143
0.000655738
0.000648293
0.000644251
0.000642173
0.000641098
0.000640521
0.000640174
0.00063999
0.000639894
0.000639845
0.00063982
0.000639809
0.000639806
0.000639728
0.000639807
0.000639733
0.000639813
0.00063974
0.000639822
0.000639826
0.000639752
0.000639835
0.000639763
0.000639844
0.000639849
0.000639775
0.00063978
0.000639862
0.000639866
0.000639871
0.000639797
0.00063988
0.000639806
0.000639811
0.000639815
0.000639898
0.000639903
0.000639907
0.000639833
0.000639836
0.000639918
0.000639923
0.000639851
0.000639933
0.000639937
0.000639863
0.000639945
0.000639949
0.000639876
0.000639959
0.000639886
0.000639967
0.000639973
0.000639899
0.000639982
0.000639986
0.000639912
0.000639916
0.00063992
0.000640002
0.000639928
0.000640011
0.000640016
0.000639945
0.000640027
0.000640031
0.00063996
0.000640041
0.000640046
0.000640051
0.000639977
0.000639981
0.000639985
0.000640067
0.000639993
0.000639999
0.000640081
0.000640085
0.00064009
0.000640016
0.000640098
0.000640104
0.000640108
0.000640035
0.000640116
0.000640042
0.000640125
0.000640051
0.000640132
0.000640137
0.000640064
0.000640147
0.000640151
0.000640079
0.000640161
0.000640166
0.000640169
0.000640173
0.000640177
0.000640184
0.00064011
0.000640114
0.000640119
0.000640122
0.000640128
0.000640209
0.000640213
0.000640141
0.000640223
0.000640226
0.000640232
0.000640236
0.00064024
0.000640244
0.000640248
0.000640252
0.000640256
0.000640261
0.000640188
0.000640193
0.000640198
0.000640203
0.000640286
0.000640289
0.000640295
0.0006403
0.000640304
0.000640308
0.000640313
0.000640318
0.000640323
0.000640326
0.000640253
0.000640336
0.000640262
0.000640266
0.000640349
0.000640353
0.000640279
0.000640361
0.000640365
0.000640292
0.000640375
0.000640379
0.000640305
0.000640385
0.000640315
0.000640396
0.000640323
0.000640328
0.000640332
0.000640337
0.000640341
0.000640345
0.000640427
0.000640433
0.00064036
0.000640441
0.000640368
0.000640373
0.000640377
0.00064046
0.000640387
0.000640469
0.000640395
0.000640477
0.000640481
0.000640485
0.000640488
0.000640493
0.000640421
0.000640503
0.000640506
0.000640431
0.000640515
0.000640519
0.000640447
0.000640531
0.000640534
0.000640462
0.000640466
0.000640471
0.000640476
0.000640483
0.000640487
0.000640415
0.000640497
0.000640501
0.000640505
0.00064043
0.000640513
0.000640517
0.000640523
0.000640528
0.000640455
0.000640459
0.000640542
0.000640546
0.00064055
0.000640554
0.000640558
0.000640564
0.000640567
0.000640492
0.000640576
0.000640581
0.000640507
0.000640588
0.000640516
0.000640598
0.000640602
0.000640607
0.000640611
0.000640614
0.000640619
0.000640546
0.000640629
0.000640633
0.000640637
0.000640642
0.000640646
0.000640651
0.000640655
0.00064066
0.000640664
0.000640669
0.000640675
0.000640679
0.000640684
0.000640689
0.000640694
0.000640698
0.000640702
0.000640629
0.000640711
0.000640637
0.00064072
0.000640724
0.00064065
0.000640734
0.00064066
0.000640742
0.000640748
0.000640674
0.000640756
0.000640761
0.000640687
0.00064077
0.000640696
0.0006407
0.000640782
0.000640786
0.000640792
0.000640798
0.000640804
0.000640808
0.000640812
0.000640738
0.00064082
0.000640825
0.000640829
0.000640833
0.000640838
0.000640842
0.000640769
0.000640851
0.000640854
0.000640859
0.000640863
0.000640868
0.000640874
0.00064088
0.000640806
0.000640889
0.000640893
0.00064082
0.000640823
0.000640907
0.000640911
0.000640915
0.000640919
0.000640924
0.000640927
0.000640932
0.000640938
0.000640865
0.000640947
0.000640952
0.000640878
0.00064096
0.000640887
0.000640969
0.000640896
0.000640979
0.000640982
0.000640988
0.000640914
0.000640995
0.000641001
0.000641005
0.000640933
0.000641013
0.000641018
0.000640945
0.000641027
0.000641033
0.00064096
0.000641041
0.000641046
0.000641049
0.000641055
0.000641059
0.000641062
0.000641068
0.000640997
0.000641078
0.000641083
0.000641009
0.000641091
0.000641017
0.000641099
0.000641027
0.000641031
0.000641035
0.000641119
0.000641045
0.000641051
0.000641133
0.000641138
0.000641066
0.00064107
0.000641153
0.000641158
0.000641162
0.000641165
0.00064117
0.000641174
0.000641179
0.000641183
0.000641188
0.000641116
0.000641119
0.0006412
0.000641126
0.00064121
0.000641137
0.000641141
0.000641147
0.00064123
0.000641235
0.000641162
0.000641242
0.000641246
0.000641252
0.000641257
0.00064126
0.000641187
0.000641191
0.000641196
0.000641201
0.000641205
0.000641131
0.000641213
0.000641217
0.000641223
0.000641228
0.000641232
0.000641236
0.000641241
0.000641245
0.000641249
0.000641255
0.00064126
0.000641263
0.000641269
0.000641273
0.000641278
0.000641282
0.000641287
0.000641213
0.000641296
0.0006413
0.000641227
0.000641309
0.000641313
0.000641319
0.000641323
0.000641328
0.000641332
0.000641259
0.000641341
0.000641346
0.000641351
0.000641355
0.00064136
0.000641365
0.000641369
0.000641374
0.000641379
0.000641383
0.000641387
0.000641314
0.000641396
0.0006414
0.000641327
0.000641409
0.000641414
0.000641418
0.000641423
0.000641429
0.000641433
0.000641437
0.000641442
0.000641446
0.00064145
0.000641455
0.000641459
0.000641466
0.00064147
0.000641474
0.000641479
0.000641484
0.000641488
0.000641492
0.000641497
0.000641501
0.000641506
0.000641511
0.000641515
0.000641519
0.000641523
0.000641528
0.000641532
0.000641537
0.000641542
0.000641546
0.000641473
0.000641555
0.00064156
0.000641564
0.000641568
0.000641572
0.000641578
0.000641581
0.000641586
0.00064159
0.000641596
0.000641599
0.000641605
0.000641609
0.000641615
0.000641621
0.000641548
0.00064163
0.000641557
0.00064164
0.000641644
0.000641649
0.000641576
0.000641658
0.000641663
0.000641668
0.000641673
0.000641677
0.00064168
0.000641684
0.00064169
0.000641616
0.000641699
0.000641703
0.000641708
0.000641713
0.000641716
0.000641722
0.000641726
0.00064173
0.000641734
0.000641739
0.000641743
0.000641748
0.000641752
0.000641757
0.000641761
0.000641765
0.000641768
0.000641774
0.000641778
0.000641783
0.000641787
0.000641792
0.000641797
0.000641802
0.000641807
0.000641811
0.000641814
0.000641821
0.000641824
)
;

boundaryField
{
    fixedWall
    {
        type            calculated;
        value           uniform 0;
    }
    outlet
    {
        type            calculated;
        value           uniform 0;
    }
    defaultFaces
    {
        type            empty;
    }
}


// ************************************************************************* //
