/*--------------------------------*- C++ -*----------------------------------*\
| =========                 |                                                 |
| \\      /  F ield         | OpenFOAM: The Open Source CFD Toolbox           |
|  \\    /   O peration     | Version:  2406                                  |
|   \\  /    A nd           | Website:  www.openfoam.com                      |
|    \\/     M anipulation  |                                                 |
\*---------------------------------------------------------------------------*/
FoamFile
{
    version     2.0;
    format      ascii;
    arch        "LSB;label=32;scalar=64";
    class       volScalarField;
    location    "3.1";
    object      T;
}
// * * * * * * * * * * * * * * * * * * * * * * * * * * * * * * * * * * * * * //

dimensions      [0 0 0 1 0 0 0];

internalField   nonuniform List<scalar> 
1000
(
317.33
359.28
396.116
429.066
458.922
486.233
511.397
534.716
556.423
576.705
595.711
613.568
630.377
646.229
661.198
675.35
688.743
701.426
713.445
724.841
735.649
745.903
755.634
764.867
773.63
781.947
789.838
797.324
804.426
811.161
817.546
823.597
829.331
834.761
839.901
844.765
849.365
853.713
857.822
861.701
865.362
868.815
872.07
875.135
878.021
880.736
883.288
885.685
887.935
890.045
892.023
893.875
895.608
897.228
898.742
900.154
901.471
902.698
903.84
904.902
905.888
906.804
907.652
908.438
909.166
909.838
910.458
911.03
911.557
912.04
912.482
912.891
913.266
913.609
913.923
914.21
914.471
914.708
914.924
915.12
915.298
915.458
915.603
915.733
915.851
915.956
916.05
916.134
916.209
916.276
916.334
916.387
916.432
916.472
916.507
916.538
916.564
916.587
916.606
916.622
916.636
916.648
916.657
916.664
916.67
916.675
916.678
916.68
916.682
916.682
916.682
916.682
916.68
916.679
916.677
916.675
916.673
916.671
916.668
916.666
916.663
916.661
916.658
916.656
916.653
916.651
916.649
916.647
916.645
916.643
916.641
916.639
916.638
916.636
916.635
916.634
916.633
916.632
916.631
916.63
916.629
916.628
916.628
916.627
916.627
916.626
916.626
916.625
916.625
916.625
916.625
916.624
916.624
916.624
916.624
916.624
916.624
916.624
916.623
916.623
916.623
916.623
916.623
916.623
916.623
916.622
916.622
916.622
916.622
916.621
916.621
916.621
916.62
916.62
916.619
916.619
916.618
916.618
916.617
916.617
916.616
916.615
916.615
916.614
916.613
916.612
916.611
916.61
916.609
916.609
916.607
916.606
916.605
916.604
916.603
916.602
916.601
916.599
916.598
916.597
916.595
916.594
916.592
916.591
916.59
916.588
916.587
916.585
916.583
916.582
916.58
916.579
916.577
916.575
916.574
916.572
916.57
916.569
916.567
916.565
916.564
916.562
916.56
916.559
916.557
916.555
916.554
916.552
916.55
916.549
916.547
916.545
916.544
916.542
916.54
916.539
916.537
916.536
916.534
916.532
916.531
916.529
916.528
916.526
916.525
916.523
916.522
916.52
916.519
916.517
916.516
916.514
916.513
916.511
916.51
916.508
916.507
916.506
916.504
916.503
916.502
916.5
916.499
916.498
916.496
916.495
916.494
916.493
916.492
916.491
916.489
916.488
916.487
916.487
916.486
916.485
916.484
916.483
916.483
916.482
916.481
916.481
916.48
916.48
916.48
916.479
916.479
916.479
916.479
916.478
916.478
916.478
916.478
916.478
916.478
916.478
916.478
916.478
916.479
916.479
916.479
916.479
916.479
916.48
916.48
916.48
916.48
916.481
916.481
916.481
916.481
916.482
916.482
916.482
916.483
916.483
916.483
916.484
916.484
916.484
916.485
916.485
916.485
916.486
916.486
916.486
916.486
916.487
916.487
916.487
916.488
916.488
916.488
916.488
916.489
916.489
916.489
916.489
916.49
916.49
916.49
916.49
916.49
916.491
916.491
916.491
916.491
916.492
916.492
916.492
916.492
916.493
916.493
916.494
916.494
916.495
916.496
916.496
916.497
916.498
916.499
916.5
916.501
916.502
916.503
916.504
916.506
916.507
916.508
916.51
916.511
916.512
916.514
916.515
916.516
916.518
916.519
916.52
916.522
916.523
916.524
916.525
916.526
916.527
916.528
916.529
916.53
916.531
916.532
916.533
916.534
916.535
916.536
916.537
916.539
916.54
916.541
916.542
916.543
916.543
916.544
916.545
916.546
916.546
916.547
916.547
916.548
916.548
916.548
916.548
916.548
916.547
916.547
916.547
916.546
916.546
916.546
916.545
916.545
916.545
916.545
916.545
916.545
916.545
916.545
916.545
916.545
916.545
916.544
916.543
916.541
916.539
916.537
916.533
916.529
916.523
916.517
916.51
916.502
916.493
916.482
916.471
916.46
916.448
916.435
916.423
916.41
916.398
916.387
916.377
916.369
916.363
916.358
916.356
916.357
916.36
916.366
916.374
916.385
916.397
916.41
916.425
916.439
916.453
916.466
916.478
916.487
916.495
916.502
916.506
916.508
916.508
916.505
916.498
916.484
916.462
916.43
916.386
916.328
916.257
916.174
916.08
915.968
915.823
915.621
915.327
914.894
914.171
912.349
905.299
870.591
634.436
487.449
400.695
351.58
324.557
309.914
302.039
297.819
295.562
294.356
293.711
293.368
293.184
293.086
293.034
293.006
292.991
292.983
292.979
292.977
292.976
292.975
292.975
292.975
292.975
292.974
292.974
292.975
292.975
292.975
292.975
292.975
292.975
292.975
292.975
292.975
292.975
292.975
292.975
292.975
292.975
292.975
292.975
292.975
292.975
292.975
292.975
292.975
292.975
292.975
292.975
292.975
292.975
292.976
292.976
292.976
292.976
292.976
292.976
292.976
292.976
292.976
292.976
292.976
292.976
292.976
292.976
292.976
292.976
292.976
292.976
292.976
292.976
292.976
292.976
292.976
292.976
292.976
292.977
292.977
292.977
292.977
292.977
292.977
292.977
292.977
292.977
292.977
292.977
292.977
292.977
292.977
292.977
292.977
292.977
292.977
292.977
292.977
292.977
292.977
292.977
292.977
292.977
292.977
292.978
292.978
292.978
292.978
292.978
292.978
292.978
292.978
292.978
292.978
292.978
292.978
292.978
292.978
292.978
292.978
292.978
292.978
292.978
292.978
292.978
292.978
292.978
292.978
292.978
292.978
292.979
292.979
292.979
292.979
292.979
292.979
292.979
292.979
292.979
292.979
292.979
292.979
292.979
292.979
292.979
292.979
292.979
292.979
292.979
292.979
292.979
292.979
292.979
292.979
292.979
292.98
292.98
292.98
292.98
292.98
292.98
292.98
292.98
292.98
292.98
292.98
292.98
292.98
292.98
292.98
292.98
292.98
292.98
292.98
292.98
292.98
292.98
292.98
292.98
292.98
292.98
292.981
292.981
292.981
292.981
292.981
292.981
292.981
292.981
292.981
292.981
292.981
292.981
292.981
292.981
292.981
292.981
292.981
292.981
292.981
292.981
292.981
292.981
292.981
292.981
292.981
292.982
292.982
292.982
292.982
292.982
292.982
292.982
292.982
292.982
292.982
292.982
292.982
292.982
292.982
292.982
292.982
292.982
292.982
292.982
292.982
292.982
292.982
292.982
292.982
292.982
292.982
292.983
292.983
292.983
292.983
292.983
292.983
292.983
292.983
292.983
292.983
292.983
292.983
292.983
292.983
292.983
292.983
292.983
292.983
292.983
292.983
292.983
292.983
292.983
292.983
292.983
292.984
292.984
292.984
292.984
292.984
292.984
292.984
292.984
292.984
292.984
292.984
292.984
292.984
292.984
292.984
292.984
292.984
292.984
292.984
292.984
292.984
292.984
292.984
292.984
292.984
292.985
292.985
292.985
292.985
292.985
292.985
292.985
292.985
292.985
292.985
292.985
292.985
292.985
292.985
292.985
292.985
292.985
292.985
292.985
292.985
292.985
292.985
292.985
292.985
292.985
292.986
292.986
292.986
292.986
292.986
292.986
292.986
292.986
292.986
292.986
292.986
292.986
292.986
292.986
292.986
292.986
292.986
292.986
292.986
292.986
292.986
292.986
292.986
292.986
292.986
292.986
292.987
292.987
292.987
292.987
292.987
292.987
292.987
292.987
292.987
292.987
292.987
292.987
292.987
292.987
292.987
292.987
292.987
292.987
292.987
292.987
292.987
292.987
292.987
292.987
292.987
292.988
292.988
292.988
292.988
292.988
292.988
292.988
292.988
292.988
292.988
292.988
292.988
292.988
292.988
292.988
292.988
292.988
292.988
292.988
292.988
292.988
292.988
292.988
292.988
292.988
292.989
292.989
292.989
292.989
292.989
292.989
292.989
292.989
292.989
292.989
292.989
292.989
292.989
292.989
292.989
292.989
292.989
292.989
292.989
292.989
292.989
292.989
292.989
292.989
292.989
292.99
292.99
292.99
292.99
292.99
292.99
292.99
292.99
292.99
292.99
292.99
292.99
292.99
292.99
292.99
292.99
292.99
292.99
292.99
292.99
292.99
292.99
292.99
292.99
292.99
292.991
292.991
292.991
292.991
292.991
292.991
292.991
292.991
292.991
292.991
292.991
292.991
292.991
292.991
292.991
292.991
292.991
292.991
292.991
292.991
292.991
292.991
292.991
292.991
292.991
292.992
292.992
292.992
292.992
292.992
292.992
292.992
292.992
292.992
292.992
292.992
292.992
292.992
292.992
292.992
292.992
292.992
292.992
292.992
292.992
292.992
292.992
292.992
292.992
292.992
292.993
292.993
292.993
292.993
292.993
292.993
292.993
292.993
292.993
292.993
292.993
292.993
292.993
292.993
292.993
292.993
292.993
292.993
292.993
292.993
292.993
292.993
292.993
292.993
292.993
292.994
)
;

boundaryField
{
    fixedWall
    {
        type            fixedValue;
        value           uniform 293;
    }
    outlet
    {
        type            inletOutlet;
        inletValue      uniform 293;
        value           uniform 292.994;
    }
    defaultFaces
    {
        type            empty;
    }
}


// ************************************************************************* //
