/*--------------------------------*- C++ -*----------------------------------*\
| =========                 |                                                 |
| \\      /  F ield         | OpenFOAM: The Open Source CFD Toolbox           |
|  \\    /   O peration     | Version:  2406                                  |
|   \\  /    A nd           | Website:  www.openfoam.com                      |
|    \\/     M anipulation  |                                                 |
\*---------------------------------------------------------------------------*/
FoamFile
{
    version     2.0;
    format      ascii;
    arch        "LSB;label=32;scalar=64";
    class       volVectorField;
    location    "3.1";
    object      U;
}
// * * * * * * * * * * * * * * * * * * * * * * * * * * * * * * * * * * * * * //

dimensions      [0 1 -1 0 0 0 0];

internalField   nonuniform List<vector> 
1000
(
(-9.71334e-06 0 0)
(-3.95495e-05 0 0)
(-8.89731e-05 0 0)
(-0.000150386 0 0)
(-0.000219965 0 0)
(-0.00029553 0 0)
(-0.000375628 0 0)
(-0.000459137 0 0)
(-0.000545175 0 0)
(-0.000633044 0 0)
(-0.000722183 0 0)
(-0.000812133 0 0)
(-0.00090251 0 0)
(-0.000992992 0 0)
(-0.0010833 0 0)
(-0.00117321 0 0)
(-0.0012625 0 0)
(-0.001351 0 0)
(-0.00143855 0 0)
(-0.00152503 0 0)
(-0.0016103 0 0)
(-0.00169427 0 0)
(-0.00177683 0 0)
(-0.00185793 0 0)
(-0.00193747 0 0)
(-0.00201541 0 0)
(-0.00209169 0 0)
(-0.00216627 0 0)
(-0.00223911 0 0)
(-0.00231019 0 0)
(-0.00237948 0 0)
(-0.00244696 0 0)
(-0.00251262 0 0)
(-0.00257647 0 0)
(-0.00263848 0 0)
(-0.00269867 0 0)
(-0.00275705 0 0)
(-0.00281361 0 0)
(-0.00286839 0 0)
(-0.00292139 0 0)
(-0.00297263 0 0)
(-0.00302214 0 0)
(-0.00306994 0 0)
(-0.00311606 0 0)
(-0.00316053 0 0)
(-0.00320338 0 0)
(-0.00324464 0 0)
(-0.00328436 0 0)
(-0.00332256 0 0)
(-0.00335928 0 0)
(-0.00339456 0 0)
(-0.00342844 0 0)
(-0.00346097 0 0)
(-0.00349217 0 0)
(-0.0035221 0 0)
(-0.00355079 0 0)
(-0.00357829 0 0)
(-0.00360464 0 0)
(-0.00362987 0 0)
(-0.00365404 0 0)
(-0.00367718 0 0)
(-0.00369933 0 0)
(-0.00372053 0 0)
(-0.00374083 0 0)
(-0.00376027 0 0)
(-0.00377887 0 0)
(-0.00379669 0 0)
(-0.00381374 0 0)
(-0.00383003 0 0)
(-0.00384567 0 0)
(-0.0038607 0 0)
(-0.00387509 0 0)
(-0.0038889 0 0)
(-0.00390216 0 0)
(-0.00391492 0 0)
(-0.00392718 0 0)
(-0.00393899 0 0)
(-0.00395036 0 0)
(-0.00396133 0 0)
(-0.00397191 0 0)
(-0.00398213 0 0)
(-0.00399202 0 0)
(-0.00400159 0 0)
(-0.00401087 0 0)
(-0.00401987 0 0)
(-0.00402862 0 0)
(-0.00403713 0 0)
(-0.00404542 0 0)
(-0.0040535 0 0)
(-0.0040614 0 0)
(-0.00406912 0 0)
(-0.00407668 0 0)
(-0.00408409 0 0)
(-0.00409136 0 0)
(-0.00409851 0 0)
(-0.00410554 0 0)
(-0.00411246 0 0)
(-0.00411929 0 0)
(-0.00412602 0 0)
(-0.00413269 0 0)
(-0.0041393 0 0)
(-0.0041456 0 0)
(-0.00415246 0 0)
(-0.0041587 0 0)
(-0.00416479 0 0)
(-0.0041714 0 0)
(-0.00417751 0 0)
(-0.00418378 0 0)
(-0.00418997 0 0)
(-0.00419614 0 0)
(-0.00420227 0 0)
(-0.00420839 0 0)
(-0.00421448 0 0)
(-0.00422056 0 0)
(-0.00422662 0 0)
(-0.00423266 0 0)
(-0.0042387 0 0)
(-0.00424472 0 0)
(-0.00425073 0 0)
(-0.00425674 0 0)
(-0.00426273 0 0)
(-0.00426873 0 0)
(-0.00427472 0 0)
(-0.0042807 0 0)
(-0.00428668 0 0)
(-0.00429266 0 0)
(-0.00429864 0 0)
(-0.00430462 0 0)
(-0.00431059 0 0)
(-0.00431656 0 0)
(-0.00432254 0 0)
(-0.00432851 0 0)
(-0.00433449 0 0)
(-0.00434046 0 0)
(-0.00434644 0 0)
(-0.00435242 0 0)
(-0.0043584 0 0)
(-0.00436437 0 0)
(-0.00437036 0 0)
(-0.00437634 0 0)
(-0.00438232 0 0)
(-0.00438831 0 0)
(-0.0043943 0 0)
(-0.00440028 0 0)
(-0.00440627 0 0)
(-0.00441227 0 0)
(-0.00441826 0 0)
(-0.00442425 0 0)
(-0.00443025 0 0)
(-0.00443625 0 0)
(-0.00444224 0 0)
(-0.00444824 0 0)
(-0.00445425 0 0)
(-0.00446025 0 0)
(-0.00446625 0 0)
(-0.00447226 0 0)
(-0.00447826 0 0)
(-0.00448427 0 0)
(-0.00449028 0 0)
(-0.00449629 0 0)
(-0.0045023 0 0)
(-0.00450831 0 0)
(-0.00451432 0 0)
(-0.00452033 0 0)
(-0.00452634 0 0)
(-0.00453236 0 0)
(-0.00453837 0 0)
(-0.00454439 0 0)
(-0.0045504 0 0)
(-0.00455642 0 0)
(-0.00456244 0 0)
(-0.00456845 0 0)
(-0.00457447 0 0)
(-0.00458049 0 0)
(-0.00458651 0 0)
(-0.00459253 0 0)
(-0.00459855 0 0)
(-0.00460457 0 0)
(-0.00461059 0 0)
(-0.00461661 0 0)
(-0.00462263 0 0)
(-0.00462865 0 0)
(-0.00463467 0 0)
(-0.00464069 0 0)
(-0.00464671 0 0)
(-0.00465274 0 0)
(-0.00465876 0 0)
(-0.00466478 0 0)
(-0.00467081 0 0)
(-0.00467683 0 0)
(-0.00468285 0 0)
(-0.00468887 0 0)
(-0.0046949 0 0)
(-0.00470092 0 0)
(-0.00470694 0 0)
(-0.00471297 0 0)
(-0.00471899 0 0)
(-0.00472502 0 0)
(-0.00473104 0 0)
(-0.00473706 0 0)
(-0.00474309 0 0)
(-0.00474911 0 0)
(-0.00475513 0 0)
(-0.00476116 0 0)
(-0.00476718 0 0)
(-0.00477321 0 0)
(-0.00477923 0 0)
(-0.00478525 0 0)
(-0.00479128 0 0)
(-0.0047973 0 0)
(-0.00480332 0 0)
(-0.00480935 0 0)
(-0.00481537 0 0)
(-0.00482139 0 0)
(-0.00482741 0 0)
(-0.00483344 0 0)
(-0.00483946 0 0)
(-0.00484548 0 0)
(-0.0048515 0 0)
(-0.00485753 0 0)
(-0.00486355 0 0)
(-0.00486957 0 0)
(-0.00487559 0 0)
(-0.00488162 0 0)
(-0.00488764 0 0)
(-0.00489366 0 0)
(-0.00489968 0 0)
(-0.00490571 0 0)
(-0.00491173 0 0)
(-0.00491775 0 0)
(-0.00492378 0 0)
(-0.0049298 0 0)
(-0.00493582 0 0)
(-0.00494185 0 0)
(-0.00494787 0 0)
(-0.0049539 0 0)
(-0.00495992 0 0)
(-0.00496595 0 0)
(-0.00497197 0 0)
(-0.004978 0 0)
(-0.00498403 0 0)
(-0.00499005 0 0)
(-0.00499608 0 0)
(-0.00500211 0 0)
(-0.00500814 0 0)
(-0.00501416 0 0)
(-0.00502019 0 0)
(-0.00502622 0 0)
(-0.00503225 0 0)
(-0.00503828 0 0)
(-0.00504431 0 0)
(-0.00505034 0 0)
(-0.00505637 0 0)
(-0.0050624 0 0)
(-0.00506843 0 0)
(-0.00507446 0 0)
(-0.00508049 0 0)
(-0.00508652 0 0)
(-0.00509256 0 0)
(-0.00509859 0 0)
(-0.00510462 0 0)
(-0.00511065 0 0)
(-0.00511668 0 0)
(-0.00512271 0 0)
(-0.00512874 0 0)
(-0.00513477 0 0)
(-0.0051408 0 0)
(-0.00514683 0 0)
(-0.00515286 0 0)
(-0.00515889 0 0)
(-0.00516492 0 0)
(-0.00517095 0 0)
(-0.00517699 0 0)
(-0.00518302 0 0)
(-0.00518905 0 0)
(-0.00519508 0 0)
(-0.00520111 0 0)
(-0.00520714 0 0)
(-0.00521317 0 0)
(-0.0052192 0 0)
(-0.00522523 0 0)
(-0.00523127 0 0)
(-0.0052373 0 0)
(-0.00524333 0 0)
(-0.00524937 0 0)
(-0.0052554 0 0)
(-0.00526144 0 0)
(-0.00526748 0 0)
(-0.00527351 0 0)
(-0.00527955 0 0)
(-0.00528559 0 0)
(-0.00529163 0 0)
(-0.00529767 0 0)
(-0.00530372 0 0)
(-0.00530976 0 0)
(-0.0053158 0 0)
(-0.00532185 0 0)
(-0.00532789 0 0)
(-0.00533394 0 0)
(-0.00533999 0 0)
(-0.00534604 0 0)
(-0.00535209 0 0)
(-0.00535814 0 0)
(-0.00536419 0 0)
(-0.00537024 0 0)
(-0.00537629 0 0)
(-0.00538235 0 0)
(-0.0053884 0 0)
(-0.00539445 0 0)
(-0.00540051 0 0)
(-0.00540656 0 0)
(-0.00541262 0 0)
(-0.00541868 0 0)
(-0.00542474 0 0)
(-0.00543079 0 0)
(-0.00543685 0 0)
(-0.00544291 0 0)
(-0.00544897 0 0)
(-0.00545503 0 0)
(-0.00546109 0 0)
(-0.00546715 0 0)
(-0.00547321 0 0)
(-0.00547927 0 0)
(-0.00548533 0 0)
(-0.0054914 0 0)
(-0.00549746 0 0)
(-0.00550352 0 0)
(-0.00550959 0 0)
(-0.00551565 0 0)
(-0.00552172 0 0)
(-0.00552778 0 0)
(-0.00553385 0 0)
(-0.00553992 0 0)
(-0.00554598 0 0)
(-0.00555205 0 0)
(-0.00555812 0 0)
(-0.00556419 0 0)
(-0.00557025 0 0)
(-0.00557632 0 0)
(-0.00558239 0 0)
(-0.00558846 0 0)
(-0.00559453 0 0)
(-0.00560059 0 0)
(-0.00560666 0 0)
(-0.00561273 0 0)
(-0.00561879 0 0)
(-0.00562486 0 0)
(-0.00563092 0 0)
(-0.00563699 0 0)
(-0.00564305 0 0)
(-0.00564911 0 0)
(-0.00565517 0 0)
(-0.00566123 0 0)
(-0.00566729 0 0)
(-0.00567335 0 0)
(-0.00567941 0 0)
(-0.00568547 0 0)
(-0.00569153 0 0)
(-0.00569759 0 0)
(-0.00570365 0 0)
(-0.0057097 0 0)
(-0.00571576 0 0)
(-0.00572183 0 0)
(-0.00572789 0 0)
(-0.00573395 0 0)
(-0.00574002 0 0)
(-0.00574608 0 0)
(-0.00575215 0 0)
(-0.00575822 0 0)
(-0.0057643 0 0)
(-0.00577037 0 0)
(-0.00577645 0 0)
(-0.00578253 0 0)
(-0.00578861 0 0)
(-0.0057947 0 0)
(-0.00580078 0 0)
(-0.00580687 0 0)
(-0.00581295 0 0)
(-0.00581904 0 0)
(-0.00582513 0 0)
(-0.00583122 0 0)
(-0.0058373 0 0)
(-0.00584339 0 0)
(-0.00584948 0 0)
(-0.00585556 0 0)
(-0.00586164 0 0)
(-0.00586772 0 0)
(-0.0058738 0 0)
(-0.00587988 0 0)
(-0.00588596 0 0)
(-0.00589204 0 0)
(-0.00589811 0 0)
(-0.00590419 0 0)
(-0.00591027 0 0)
(-0.00591634 0 0)
(-0.00592242 0 0)
(-0.0059285 0 0)
(-0.00593459 0 0)
(-0.00594067 0 0)
(-0.00594676 0 0)
(-0.00595285 0 0)
(-0.00595894 0 0)
(-0.00596504 0 0)
(-0.00597113 0 0)
(-0.00597723 0 0)
(-0.00598333 0 0)
(-0.00598943 0 0)
(-0.00599553 0 0)
(-0.00600163 0 0)
(-0.00600772 0 0)
(-0.00601381 0 0)
(-0.00601989 0 0)
(-0.00602597 0 0)
(-0.00603204 0 0)
(-0.0060381 0 0)
(-0.00604416 0 0)
(-0.00605021 0 0)
(-0.00605626 0 0)
(-0.0060623 0 0)
(-0.00606834 0 0)
(-0.00607438 0 0)
(-0.00608042 0 0)
(-0.00608646 0 0)
(-0.00609251 0 0)
(-0.00609857 0 0)
(-0.00610464 0 0)
(-0.00611072 0 0)
(-0.00611682 0 0)
(-0.00612293 0 0)
(-0.00612906 0 0)
(-0.00613521 0 0)
(-0.00614138 0 0)
(-0.00614757 0 0)
(-0.00615377 0 0)
(-0.00615998 0 0)
(-0.0061662 0 0)
(-0.00617242 0 0)
(-0.00617864 0 0)
(-0.00618484 0 0)
(-0.00619103 0 0)
(-0.00619719 0 0)
(-0.00620333 0 0)
(-0.00620938 0 0)
(-0.00621546 0 0)
(-0.00622135 0 0)
(-0.00622732 0 0)
(-0.0062331 0 0)
(-0.0062388 0 0)
(-0.00624455 0 0)
(-0.00625003 0 0)
(-0.00625554 0 0)
(-0.00626091 0 0)
(-0.00626624 0 0)
(-0.00627149 0 0)
(-0.00627671 0 0)
(-0.0062819 0 0)
(-0.0062871 0 0)
(-0.00629233 0 0)
(-0.00629761 0 0)
(-0.00630299 0 0)
(-0.00630842 0 0)
(-0.00631402 0 0)
(-0.00631966 0 0)
(-0.00632528 0 0)
(-0.00633116 0 0)
(-0.00633694 0 0)
(-0.00634262 0 0)
(-0.00634828 0 0)
(-0.00635379 0 0)
(-0.00635917 0 0)
(-0.00636442 0 0)
(-0.00636959 0 0)
(-0.00637474 0 0)
(-0.00637989 0 0)
(-0.0063851 0 0)
(-0.00639031 0 0)
(-0.00639534 0 0)
(-0.00639979 0 0)
(-0.00640302 0 0)
(-0.00640433 0 0)
(-0.00640306 0 0)
(-0.00639897 0 0)
(-0.00638595 0 0)
(-0.00636686 0 0)
(-0.00632382 0 0)
(-0.00628337 0 0)
(-0.00629011 0 0)
(-0.00604552 0 0)
(-0.00658899 0 0)
(6.35148e-06 0 0)
(0.0346847 0 0)
(0.0804861 0 0)
(0.104831 0 0)
(0.114172 0 0)
(0.117747 0 0)
(0.119035 0 0)
(0.119468 0 0)
(0.119642 0 0)
(0.119696 0 0)
(0.119732 0 0)
(0.119695 0 0)
(0.119742 0 0)
(0.119778 0 0)
(0.119696 0 0)
(0.119716 0 0)
(0.119655 0 0)
(0.119738 0 0)
(0.11979 0 0)
(0.119588 0 0)
(0.119772 0 0)
(0.119582 0 0)
(0.119721 0 0)
(0.119758 0 0)
(0.119558 0 0)
(0.119711 0 0)
(0.11963 0 0)
(0.119661 0 0)
(0.119668 0 0)
(0.119606 0 0)
(0.119651 0 0)
(0.119601 0 0)
(0.119673 0 0)
(0.119523 0 0)
(0.119646 0 0)
(0.119689 0 0)
(0.119481 0 0)
(0.119678 0 0)
(0.119491 0 0)
(0.119624 0 0)
(0.119637 0 0)
(0.119516 0 0)
(0.119502 0 0)
(0.119611 0 0)
(0.119626 0 0)
(0.119436 0 0)
(0.119616 0 0)
(0.119442 0 0)
(0.119586 0 0)
(0.119579 0 0)
(0.11944 0 0)
(0.119533 0 0)
(0.119491 0 0)
(0.119578 0 0)
(0.119383 0 0)
(0.119516 0 0)
(0.11962 0 0)
(0.119294 0 0)
(0.119525 0 0)
(0.119602 0 0)
(0.119278 0 0)
(0.119509 0 0)
(0.119586 0 0)
(0.119262 0 0)
(0.119492 0 0)
(0.119568 0 0)
(0.119248 0 0)
(0.119479 0 0)
(0.119548 0 0)
(0.119218 0 0)
(0.119488 0 0)
(0.119485 0 0)
(0.119289 0 0)
(0.119455 0 0)
(0.119338 0 0)
(0.119388 0 0)
(0.119481 0 0)
(0.119218 0 0)
(0.119416 0 0)
(0.119472 0 0)
(0.119202 0 0)
(0.119402 0 0)
(0.119437 0 0)
(0.119203 0 0)
(0.119392 0 0)
(0.119393 0 0)
(0.119234 0 0)
(0.119393 0 0)
(0.119232 0 0)
(0.119337 0 0)
(0.119406 0 0)
(0.119165 0 0)
(0.119334 0 0)
(0.119381 0 0)
(0.119137 0 0)
(0.119341 0 0)
(0.11938 0 0)
(0.119082 0 0)
(0.119356 0 0)
(0.119321 0 0)
(0.119174 0 0)
(0.119263 0 0)
(0.119281 0 0)
(0.119187 0 0)
(0.119244 0 0)
(0.119335 0 0)
(0.119075 0 0)
(0.119266 0 0)
(0.11934 0 0)
(0.119031 0 0)
(0.119264 0 0)
(0.119321 0 0)
(0.119013 0 0)
(0.119268 0 0)
(0.11929 0 0)
(0.119003 0 0)
(0.119268 0 0)
(0.119212 0 0)
(0.119132 0 0)
(0.119105 0 0)
(0.119207 0 0)
(0.119211 0 0)
(0.119098 0 0)
(0.119094 0 0)
(0.119179 0 0)
(0.119242 0 0)
(0.118944 0 0)
(0.119214 0 0)
(0.119189 0 0)
(0.119029 0 0)
(0.119137 0 0)
(0.119117 0 0)
(0.119087 0 0)
(0.119145 0 0)
(0.119012 0 0)
(0.119115 0 0)
(0.119205 0 0)
(0.118905 0 0)
(0.119136 0 0)
(0.119183 0 0)
(0.118895 0 0)
(0.119161 0 0)
(0.119043 0 0)
(0.11907 0 0)
(0.119038 0 0)
(0.119017 0 0)
(0.119132 0 0)
(0.118932 0 0)
(0.119109 0 0)
(0.118943 0 0)
(0.119071 0 0)
(0.119077 0 0)
(0.118962 0 0)
(0.118958 0 0)
(0.119062 0 0)
(0.119063 0 0)
(0.11891 0 0)
(0.119029 0 0)
(0.118977 0 0)
(0.119023 0 0)
(0.118898 0 0)
(0.119037 0 0)
(0.119021 0 0)
(0.118901 0 0)
(0.118964 0 0)
(0.118968 0 0)
(0.119008 0 0)
(0.118878 0 0)
(0.118984 0 0)
(0.118979 0 0)
(0.11888 0 0)
(0.118996 0 0)
(0.118855 0 0)
(0.118957 0 0)
(0.119033 0 0)
(0.118753 0 0)
(0.118983 0 0)
(0.118991 0 0)
(0.118794 0 0)
(0.11894 0 0)
(0.118964 0 0)
(0.118785 0 0)
(0.118985 0 0)
(0.11884 0 0)
(0.118856 0 0)
(0.118991 0 0)
(0.118828 0 0)
(0.118861 0 0)
(0.118817 0 0)
(0.118909 0 0)
(0.118933 0 0)
(0.118755 0 0)
(0.118914 0 0)
(0.118804 0 0)
(0.118857 0 0)
(0.118929 0 0)
(0.11871 0 0)
(0.118877 0 0)
(0.118937 0 0)
(0.118663 0 0)
(0.118898 0 0)
(0.118887 0 0)
(0.118734 0 0)
(0.11883 0 0)
(0.118839 0 0)
(0.118729 0 0)
(0.118851 0 0)
(0.118894 0 0)
(0.118622 0 0)
(0.118868 0 0)
(0.11888 0 0)
(0.118613 0 0)
(0.11888 0 0)
(0.118787 0 0)
(0.11876 0 0)
(0.118751 0 0)
(0.118761 0 0)
(0.118869 0 0)
(0.118592 0 0)
(0.118836 0 0)
(0.118844 0 0)
(0.118577 0 0)
(0.118845 0 0)
(0.118775 0 0)
(0.118693 0 0)
(0.118703 0 0)
(0.118754 0 0)
(0.118828 0 0)
(0.118578 0 0)
(0.118774 0 0)
(0.118815 0 0)
(0.118565 0 0)
(0.118776 0 0)
(0.118772 0 0)
(0.118617 0 0)
(0.118773 0 0)
(0.118617 0 0)
(0.118724 0 0)
(0.118781 0 0)
(0.118538 0 0)
(0.118747 0 0)
(0.118768 0 0)
(0.118577 0 0)
(0.1187 0 0)
(0.118746 0 0)
(0.118577 0 0)
(0.118729 0 0)
(0.118583 0 0)
(0.118724 0 0)
(0.118694 0 0)
(0.118609 0 0)
(0.118611 0 0)
(0.118677 0 0)
(0.118754 0 0)
(0.118471 0 0)
(0.118717 0 0)
(0.118696 0 0)
(0.118556 0 0)
(0.118625 0 0)
(0.118677 0 0)
(0.118597 0 0)
(0.118643 0 0)
(0.118586 0 0)
(0.118634 0 0)
(0.118656 0 0)
(0.118569 0 0)
(0.118568 0 0)
(0.118634 0 0)
(0.118686 0 0)
(0.118472 0 0)
(0.118653 0 0)
(0.118628 0 0)
(0.118537 0 0)
(0.118611 0 0)
(0.11857 0 0)
(0.118606 0 0)
(0.118536 0 0)
(0.118595 0 0)
(0.118635 0 0)
(0.11847 0 0)
(0.118643 0 0)
(0.11852 0 0)
(0.118579 0 0)
(0.118617 0 0)
(0.118481 0 0)
(0.118582 0 0)
(0.118554 0 0)
(0.118542 0 0)
(0.118558 0 0)
(0.118526 0 0)
(0.118556 0 0)
(0.118549 0 0)
(0.11854 0 0)
(0.118473 0 0)
(0.118574 0 0)
(0.118611 0 0)
(0.118366 0 0)
(0.118602 0 0)
(0.118606 0 0)
(0.11835 0 0)
(0.118611 0 0)
(0.118552 0 0)
(0.118446 0 0)
(0.118543 0 0)
(0.11851 0 0)
(0.118435 0 0)
(0.11854 0 0)
(0.118603 0 0)
(0.11833 0 0)
(0.118567 0 0)
(0.118555 0 0)
(0.118404 0 0)
(0.118521 0 0)
(0.118466 0 0)
(0.118522 0 0)
(0.118405 0 0)
(0.118524 0 0)
(0.118543 0 0)
(0.118372 0 0)
(0.118536 0 0)
(0.118392 0 0)
(0.118511 0 0)
(0.118528 0 0)
(0.118385 0 0)
(0.118476 0 0)
(0.118479 0 0)
(0.118379 0 0)
(0.118522 0 0)
(0.118487 0 0)
(0.118388 0 0)
(0.118425 0 0)
(0.118506 0 0)
(0.118405 0 0)
(0.118454 0 0)
(0.118487 0 0)
(0.118383 0 0)
(0.118391 0 0)
(0.11848 0 0)
(0.1185 0 0)
(0.118319 0 0)
(0.118467 0 0)
(0.118469 0 0)
(0.118341 0 0)
(0.118461 0 0)
(0.118459 0 0)
(0.118352 0 0)
(0.118441 0 0)
(0.118429 0 0)
(0.118386 0 0)
(0.118432 0 0)
(0.118341 0 0)
(0.118477 0 0)
(0.118387 0 0)
(0.118406 0 0)
(0.118391 0 0)
(0.118389 0 0)
(0.118466 0 0)
(0.118299 0 0)
(0.118453 0 0)
(0.118318 0 0)
(0.118448 0 0)
(0.118428 0 0)
(0.118311 0 0)
(0.11841 0 0)
(0.118371 0 0)
(0.118429 0 0)
(0.118292 0 0)
(0.118413 0 0)
(0.118473 0 0)
(0.118204 0 0)
(0.118453 0 0)
(0.118456 0 0)
(0.11821 0 0)
(0.118451 0 0)
(0.118403 0 0)
(0.118301 0 0)
(0.118351 0 0)
(0.118419 0 0)
(0.118316 0 0)
(0.118369 0 0)
(0.118414 0 0)
(0.118281 0 0)
(0.118364 0 0)
(0.118388 0 0)
(0.118279 0 0)
(0.118393 0 0)
(0.11841 0 0)
(0.118233 0 0)
(0.118371 0 0)
(0.118382 0 0)
(0.118394 0 0)
(0.1182 0 0)
(0.118399 0 0)
(0.118432 0 0)
(0.118179 0 0)
(0.118394 0 0)
(0.11843 0 0)
(0.118173 0 0)
(0.118408 0 0)
(0.118385 0 0)
(0.118244 0 0)
(0.118361 0 0)
(0.118307 0 0)
(0.11836 0 0)
(0.118249 0 0)
(0.118374 0 0)
(0.118365 0 0)
(0.118262 0 0)
(0.118276 0 0)
(0.11838 0 0)
(0.118353 0 0)
(0.118251 0 0)
(0.118304 0 0)
(0.118332 0 0)
(0.118371 0 0)
(0.118195 0 0)
(0.118378 0 0)
(0.118336 0 0)
(0.118266 0 0)
(0.118257 0 0)
(0.118366 0 0)
(0.118344 0 0)
(0.118229 0 0)
(0.118324 0 0)
(0.118292 0 0)
(0.118348 0 0)
(0.118203 0 0)
(0.118354 0 0)
(0.118375 0 0)
(0.118137 0 0)
(0.118388 0 0)
(0.118321 0 0)
(0.118248 0 0)
(0.118253 0 0)
(0.118336 0 0)
(0.118348 0 0)
(0.118205 0 0)
(0.118313 0 0)
(0.118292 0 0)
(0.11826 0 0)
(0.118331 0 0)
(0.118233 0 0)
(0.11833 0 0)
(0.118263 0 0)
(0.118277 0 0)
(0.118347 0 0)
(0.118188 0 0)
(0.118338 0 0)
(0.118207 0 0)
(0.118336 0 0)
(0.118319 0 0)
(0.118203 0 0)
(0.118308 0 0)
(0.118259 0 0)
(0.118319 0 0)
(0.118195 0 0)
(0.118321 0 0)
(0.118338 0 0)
(0.118163 0 0)
(0.118329 0 0)
(0.118261 0 0)
(0.118264 0 0)
(0.11832 0 0)
(0.118161 0 0)
(0.118356 0 0)
(0.118252 0 0)
(0.118274 0 0)
(0.118258 0 0)
(0.118264 0 0)
(0.118316 0 0)
(0.118208 0 0)
(0.118241 0 0)
(0.118331 0 0)
(0.118228 0 0)
(0.118266 0 0)
(0.118328 0 0)
(0.118201 0 0)
(0.118216 0 0)
(0.118352 0 0)
(0.118236 0 0)
(0.118227 0 0)
(0.118375 0 0)
(0.11811 0 0)
(0.118318 0 0)
(0.118354 0 0)
(0.118109 0 0)
(0.118324 0 0)
(0.118342 0 0)
(0.118115 0 0)
(0.11836 0 0)
(0.118205 0 0)
(0.118254 0 0)
(0.118343 0 0)
(0.11825 0 0)
(0.118131 0 0)
(0.118349 0 0)
(0.118306 0 0)
(0.118166 0 0)
(0.118314 0 0)
(0.118187 0 0)
(0.118322 0 0)
(0.118289 0 0)
(0.118207 0 0)
(0.118215 0 0)
(0.118304 0 0)
(0.118327 0 0)
(0.118108 0 0)
(0.118359 0 0)
(0.118239 0 0)
(0.118247 0 0)
(0.118264 0 0)
)
;

boundaryField
{
    fixedWall
    {
        type            fixedValue;
        value           uniform (0 0 0);
    }
    outlet
    {
        type            pressureInletOutletVelocity;
        value           uniform (0.118264 0 0);
    }
    defaultFaces
    {
        type            empty;
    }
}


// ************************************************************************* //
