/*--------------------------------*- C++ -*----------------------------------*\
| =========                 |                                                 |
| \\      /  F ield         | OpenFOAM: The Open Source CFD Toolbox           |
|  \\    /   O peration     | Version:  2406                                  |
|   \\  /    A nd           | Website:  www.openfoam.com                      |
|    \\/     M anipulation  |                                                 |
\*---------------------------------------------------------------------------*/
FoamFile
{
    version     2.0;
    format      ascii;
    arch        "LSB;label=32;scalar=64";
    class       volScalarField;
    location    "14.1";
    object      O2;
}
// * * * * * * * * * * * * * * * * * * * * * * * * * * * * * * * * * * * * * //

dimensions      [0 0 0 0 0 0 0];

internalField   nonuniform List<scalar> 
1000
(
1.00328e-06
1.00193e-06
9.99445e-07
9.95993e-07
9.91699e-07
9.86664e-07
9.80972e-07
9.74692e-07
9.67883e-07
9.60597e-07
9.52877e-07
9.44763e-07
9.3629e-07
9.2749e-07
9.18391e-07
9.09019e-07
8.99397e-07
8.89548e-07
8.79493e-07
8.69249e-07
8.58835e-07
8.48267e-07
8.37561e-07
8.26732e-07
8.15792e-07
8.04757e-07
7.93638e-07
7.82447e-07
7.71197e-07
7.59897e-07
7.4856e-07
7.37195e-07
7.25813e-07
7.14423e-07
7.03035e-07
6.91658e-07
6.80302e-07
6.68974e-07
6.57684e-07
6.46439e-07
6.35249e-07
6.2412e-07
6.13061e-07
6.02079e-07
5.91182e-07
5.80375e-07
5.69666e-07
5.59062e-07
5.48568e-07
5.3819e-07
5.27934e-07
5.17806e-07
5.0781e-07
4.9795e-07
4.88232e-07
4.7866e-07
4.69236e-07
4.59965e-07
4.5085e-07
4.41893e-07
4.33097e-07
4.24464e-07
4.15996e-07
4.07694e-07
3.9956e-07
3.91595e-07
3.83798e-07
3.76171e-07
3.68714e-07
3.61427e-07
3.54308e-07
3.47359e-07
3.40577e-07
3.33962e-07
3.27512e-07
3.21227e-07
3.15104e-07
3.09143e-07
3.0334e-07
2.97695e-07
2.92204e-07
2.86867e-07
2.8168e-07
2.76641e-07
2.71747e-07
2.66997e-07
2.62387e-07
2.57914e-07
2.53577e-07
2.49373e-07
2.45297e-07
2.41349e-07
2.37524e-07
2.33821e-07
2.30236e-07
2.26767e-07
2.2341e-07
2.20164e-07
2.17025e-07
2.1399e-07
2.11057e-07
2.08223e-07
2.05486e-07
2.02842e-07
2.0029e-07
1.97826e-07
1.95449e-07
1.93155e-07
1.90942e-07
1.88809e-07
1.86752e-07
1.84769e-07
1.82859e-07
1.81018e-07
1.79245e-07
1.77538e-07
1.75894e-07
1.74312e-07
1.72789e-07
1.71324e-07
1.69915e-07
1.6856e-07
1.67258e-07
1.66006e-07
1.64802e-07
1.63646e-07
1.62536e-07
1.6147e-07
1.60447e-07
1.59464e-07
1.58522e-07
1.57618e-07
1.56751e-07
1.55919e-07
1.55123e-07
1.54359e-07
1.53628e-07
1.52928e-07
1.52258e-07
1.51616e-07
1.51003e-07
1.50416e-07
1.49855e-07
1.49319e-07
1.48806e-07
1.48317e-07
1.4785e-07
1.47405e-07
1.4698e-07
1.46575e-07
1.4619e-07
1.45822e-07
1.45473e-07
1.4514e-07
1.44824e-07
1.44523e-07
1.44238e-07
1.43967e-07
1.43711e-07
1.43468e-07
1.43237e-07
1.4302e-07
1.42814e-07
1.4262e-07
1.42436e-07
1.42264e-07
1.42102e-07
1.41949e-07
1.41806e-07
1.41672e-07
1.41547e-07
1.4143e-07
1.41321e-07
1.4122e-07
1.41126e-07
1.41039e-07
1.40959e-07
1.40885e-07
1.40818e-07
1.40757e-07
1.40701e-07
1.40651e-07
1.40607e-07
1.40567e-07
1.40532e-07
1.40502e-07
1.40477e-07
1.40455e-07
1.40438e-07
1.40425e-07
1.40415e-07
1.40409e-07
1.40407e-07
1.40407e-07
1.40411e-07
1.40418e-07
1.40428e-07
1.40441e-07
1.40456e-07
1.40474e-07
1.40494e-07
1.40517e-07
1.40542e-07
1.40569e-07
1.40598e-07
1.40629e-07
1.40662e-07
1.40697e-07
1.40733e-07
1.40771e-07
1.40811e-07
1.40852e-07
1.40894e-07
1.40938e-07
1.40984e-07
1.4103e-07
1.41078e-07
1.41127e-07
1.41177e-07
1.41228e-07
1.41279e-07
1.41332e-07
1.41386e-07
1.41441e-07
1.41496e-07
1.41553e-07
1.4161e-07
1.41668e-07
1.41726e-07
1.41785e-07
1.41845e-07
1.41906e-07
1.41967e-07
1.42028e-07
1.4209e-07
1.42153e-07
1.42216e-07
1.42279e-07
1.42343e-07
1.42408e-07
1.42472e-07
1.42538e-07
1.42603e-07
1.42669e-07
1.42735e-07
1.42802e-07
1.42868e-07
1.42936e-07
1.43003e-07
1.43071e-07
1.43139e-07
1.43207e-07
1.43276e-07
1.43344e-07
1.43413e-07
1.43482e-07
1.43552e-07
1.43621e-07
1.43691e-07
1.43761e-07
1.43831e-07
1.43901e-07
1.43971e-07
1.44042e-07
1.44112e-07
1.44183e-07
1.44254e-07
1.44325e-07
1.44396e-07
1.44468e-07
1.44539e-07
1.4461e-07
1.44682e-07
1.44754e-07
1.44826e-07
1.44898e-07
1.4497e-07
1.45042e-07
1.45114e-07
1.45187e-07
1.45259e-07
1.45332e-07
1.45404e-07
1.45477e-07
1.4555e-07
1.45623e-07
1.45696e-07
1.45769e-07
1.45842e-07
1.45915e-07
1.45988e-07
1.46061e-07
1.46135e-07
1.46208e-07
1.46282e-07
1.46355e-07
1.46429e-07
1.46503e-07
1.46576e-07
1.4665e-07
1.46724e-07
1.46798e-07
1.46872e-07
1.46946e-07
1.47021e-07
1.47095e-07
1.47169e-07
1.47244e-07
1.47318e-07
1.47393e-07
1.47467e-07
1.47542e-07
1.47617e-07
1.47691e-07
1.47766e-07
1.47841e-07
1.47916e-07
1.47991e-07
1.48066e-07
1.48141e-07
1.48217e-07
1.48292e-07
1.48367e-07
1.48443e-07
1.48518e-07
1.48594e-07
1.4867e-07
1.48745e-07
1.48821e-07
1.48897e-07
1.48973e-07
1.49049e-07
1.49125e-07
1.49201e-07
1.49277e-07
1.49354e-07
1.4943e-07
1.49506e-07
1.49583e-07
1.49659e-07
1.49736e-07
1.49813e-07
1.49889e-07
1.49966e-07
1.50043e-07
1.5012e-07
1.50197e-07
1.50274e-07
1.50352e-07
1.50429e-07
1.50506e-07
1.50584e-07
1.50661e-07
1.50739e-07
1.50817e-07
1.50895e-07
1.50972e-07
1.5105e-07
1.51128e-07
1.51207e-07
1.51285e-07
1.51363e-07
1.51441e-07
1.5152e-07
1.51598e-07
1.51677e-07
1.51755e-07
1.51834e-07
1.51913e-07
1.51992e-07
1.52071e-07
1.5215e-07
1.52229e-07
1.52308e-07
1.52388e-07
1.52467e-07
1.52547e-07
1.52626e-07
1.52706e-07
1.52786e-07
1.52865e-07
1.52945e-07
1.53025e-07
1.53106e-07
1.53186e-07
1.53266e-07
1.53346e-07
1.53427e-07
1.53507e-07
1.53588e-07
1.53669e-07
1.53749e-07
1.5383e-07
1.53911e-07
1.53992e-07
1.54073e-07
1.54155e-07
1.54236e-07
1.54317e-07
1.54399e-07
1.54481e-07
1.54562e-07
1.54644e-07
1.54726e-07
1.54808e-07
1.5489e-07
1.54972e-07
1.55054e-07
1.55137e-07
1.55219e-07
1.55301e-07
1.55384e-07
1.55467e-07
1.5555e-07
1.55632e-07
1.55715e-07
1.55798e-07
1.55882e-07
1.55965e-07
1.56048e-07
1.56132e-07
1.56215e-07
1.56298e-07
1.56382e-07
1.56466e-07
1.5655e-07
1.56634e-07
1.56718e-07
1.56802e-07
1.56886e-07
1.56971e-07
1.57055e-07
1.5714e-07
1.57224e-07
1.57309e-07
1.57393e-07
1.57478e-07
1.57563e-07
1.57648e-07
1.57733e-07
1.57819e-07
1.57904e-07
1.57989e-07
1.58075e-07
1.58161e-07
1.58246e-07
1.58332e-07
1.58418e-07
1.58504e-07
1.5859e-07
1.58676e-07
1.58763e-07
1.58849e-07
1.58935e-07
1.59022e-07
1.59109e-07
1.59195e-07
1.59282e-07
1.59369e-07
1.59456e-07
1.59543e-07
1.59631e-07
1.59718e-07
1.59805e-07
1.59893e-07
1.5998e-07
1.60068e-07
1.60156e-07
1.60244e-07
1.60332e-07
1.6042e-07
1.60508e-07
1.60597e-07
1.60685e-07
1.60773e-07
1.60862e-07
1.60951e-07
1.6104e-07
1.61128e-07
1.61217e-07
1.61306e-07
1.61396e-07
1.61485e-07
1.61574e-07
1.61664e-07
1.61753e-07
1.61843e-07
1.61933e-07
1.62023e-07
1.62113e-07
1.62203e-07
1.62293e-07
1.62383e-07
1.62474e-07
1.62564e-07
1.62655e-07
1.62745e-07
1.62836e-07
1.62927e-07
1.63018e-07
1.63109e-07
1.632e-07
1.63292e-07
1.63383e-07
1.63475e-07
1.63566e-07
1.63658e-07
1.6375e-07
1.63842e-07
1.63934e-07
1.64026e-07
1.64118e-07
1.6421e-07
1.64303e-07
1.64395e-07
1.64488e-07
1.64581e-07
1.64674e-07
1.64767e-07
1.6486e-07
1.64953e-07
1.65046e-07
1.65139e-07
1.65233e-07
1.65326e-07
1.6542e-07
1.65514e-07
1.65608e-07
1.65702e-07
1.65796e-07
1.6589e-07
1.65984e-07
1.66079e-07
1.66174e-07
1.66268e-07
1.66363e-07
1.66458e-07
1.66553e-07
1.66648e-07
1.66743e-07
1.66838e-07
1.66934e-07
1.67029e-07
1.67125e-07
1.6722e-07
1.67316e-07
1.67412e-07
1.67508e-07
1.67604e-07
1.67701e-07
1.67797e-07
1.67894e-07
1.6799e-07
1.68087e-07
1.68184e-07
1.68281e-07
1.68378e-07
1.68475e-07
1.68572e-07
1.6867e-07
1.68767e-07
1.68865e-07
1.68962e-07
1.6906e-07
1.69158e-07
1.69256e-07
1.69354e-07
1.69452e-07
1.69551e-07
1.69649e-07
1.69748e-07
1.69847e-07
1.69946e-07
1.70045e-07
1.70144e-07
1.70243e-07
1.70342e-07
1.70442e-07
1.70541e-07
1.70641e-07
1.70741e-07
1.7084e-07
1.7094e-07
1.71041e-07
1.71141e-07
1.71241e-07
1.71342e-07
1.71442e-07
1.71543e-07
1.71644e-07
1.71745e-07
1.71846e-07
1.71947e-07
1.72048e-07
1.7215e-07
1.72251e-07
1.72353e-07
1.72455e-07
1.72557e-07
1.72659e-07
1.72761e-07
1.72863e-07
1.72966e-07
1.73068e-07
1.73171e-07
1.73274e-07
1.73377e-07
1.7348e-07
1.73583e-07
1.73686e-07
1.7379e-07
1.73893e-07
1.73997e-07
1.74101e-07
1.74204e-07
1.74308e-07
1.74413e-07
1.74517e-07
1.74621e-07
1.74726e-07
1.74831e-07
1.74935e-07
1.7504e-07
1.75145e-07
1.7525e-07
1.75356e-07
1.75461e-07
1.75567e-07
1.75672e-07
1.75778e-07
1.75884e-07
1.7599e-07
1.76096e-07
1.76203e-07
1.76309e-07
1.76416e-07
1.76522e-07
1.76629e-07
1.76736e-07
1.76843e-07
1.76951e-07
1.77058e-07
1.77165e-07
1.77273e-07
1.77381e-07
1.77489e-07
1.77597e-07
1.77705e-07
1.77813e-07
1.77922e-07
1.7803e-07
1.78139e-07
1.78248e-07
1.78356e-07
1.78466e-07
1.78575e-07
1.78684e-07
1.78794e-07
1.78903e-07
1.79013e-07
1.79123e-07
1.79233e-07
1.79343e-07
1.79453e-07
1.79564e-07
1.79674e-07
1.79785e-07
1.79896e-07
1.80007e-07
1.80118e-07
1.80229e-07
1.8034e-07
1.80452e-07
1.80563e-07
1.80675e-07
1.80786e-07
1.80898e-07
1.81011e-07
1.81123e-07
1.81235e-07
1.81348e-07
1.81461e-07
1.81573e-07
1.81686e-07
1.818e-07
1.81913e-07
1.82026e-07
1.8214e-07
1.82253e-07
1.82367e-07
1.82481e-07
1.82595e-07
1.82709e-07
1.82823e-07
1.82938e-07
1.83053e-07
1.83167e-07
1.83282e-07
1.83397e-07
1.83512e-07
1.83628e-07
1.83743e-07
1.83859e-07
1.83975e-07
1.84091e-07
1.84207e-07
1.84323e-07
1.84439e-07
1.84556e-07
1.84673e-07
1.8479e-07
1.84907e-07
1.85024e-07
1.85141e-07
1.85258e-07
1.85376e-07
1.85494e-07
1.85612e-07
1.8573e-07
1.85848e-07
1.85967e-07
1.86085e-07
1.86204e-07
1.86323e-07
1.86442e-07
1.86562e-07
1.86681e-07
1.86801e-07
1.86921e-07
1.87041e-07
1.87161e-07
1.87281e-07
1.87402e-07
1.87523e-07
1.87644e-07
1.87765e-07
1.87887e-07
1.88008e-07
1.8813e-07
1.88252e-07
1.88375e-07
1.88497e-07
1.8862e-07
1.88743e-07
1.88866e-07
1.8899e-07
1.89114e-07
1.89238e-07
1.89362e-07
1.89487e-07
1.89612e-07
1.89737e-07
1.89863e-07
1.89989e-07
1.90115e-07
1.90242e-07
1.90369e-07
1.90496e-07
1.90624e-07
1.90752e-07
1.90881e-07
1.9101e-07
1.91139e-07
1.9127e-07
1.914e-07
1.91531e-07
1.91663e-07
1.91795e-07
1.91928e-07
1.92062e-07
1.92196e-07
1.92331e-07
1.92467e-07
1.92604e-07
1.92741e-07
1.9288e-07
1.93019e-07
1.93159e-07
1.93301e-07
1.93443e-07
1.93587e-07
1.93732e-07
1.93878e-07
1.94026e-07
1.94175e-07
1.94325e-07
1.94477e-07
1.94631e-07
1.94787e-07
1.94945e-07
1.95104e-07
1.95266e-07
1.9543e-07
1.95596e-07
1.95765e-07
1.95937e-07
1.96111e-07
1.96289e-07
1.96469e-07
1.96653e-07
1.9684e-07
1.97031e-07
1.97226e-07
1.97425e-07
1.97629e-07
1.97837e-07
1.9805e-07
1.98268e-07
1.98491e-07
1.9872e-07
1.98955e-07
1.99197e-07
1.99445e-07
1.997e-07
1.99963e-07
2.00233e-07
2.00512e-07
2.008e-07
2.01096e-07
2.01403e-07
2.01719e-07
2.02046e-07
2.02385e-07
2.02735e-07
2.03098e-07
2.03474e-07
2.03864e-07
2.04268e-07
2.04688e-07
2.05123e-07
2.05576e-07
2.06046e-07
2.06534e-07
2.07042e-07
2.07571e-07
2.08121e-07
2.08693e-07
2.09289e-07
2.0991e-07
2.10557e-07
2.11231e-07
2.11933e-07
2.12665e-07
2.13429e-07
2.14225e-07
2.15055e-07
2.15921e-07
2.16824e-07
2.17767e-07
2.1875e-07
2.19776e-07
2.20847e-07
2.21964e-07
2.2313e-07
2.24347e-07
2.25617e-07
2.26941e-07
2.28324e-07
2.29766e-07
2.31271e-07
2.32842e-07
2.3448e-07
2.36188e-07
2.37971e-07
2.39829e-07
2.41768e-07
2.43788e-07
2.45895e-07
2.48091e-07
2.5038e-07
2.52764e-07
2.55249e-07
2.57837e-07
2.60532e-07
2.63338e-07
2.66259e-07
2.69299e-07
2.72462e-07
2.75753e-07
2.79176e-07
2.82735e-07
2.86434e-07
2.90278e-07
2.94272e-07
2.98421e-07
3.02728e-07
3.07199e-07
3.11838e-07
3.16651e-07
3.21641e-07
3.26814e-07
3.32175e-07
3.37728e-07
3.43478e-07
3.49429e-07
3.55587e-07
3.61955e-07
3.68538e-07
3.7534e-07
3.82365e-07
3.89617e-07
3.971e-07
4.04816e-07
4.1277e-07
4.20962e-07
4.29397e-07
4.38076e-07
4.46999e-07
4.5617e-07
4.65586e-07
4.7525e-07
4.85159e-07
4.95313e-07
5.05709e-07
5.16343e-07
5.27213e-07
5.38314e-07
5.49639e-07
5.61181e-07
5.72934e-07
5.84887e-07
5.9703e-07
6.09352e-07
6.21839e-07
6.34477e-07
6.47251e-07
6.60143e-07
6.73134e-07
6.86204e-07
6.99331e-07
7.12491e-07
7.25658e-07
7.38806e-07
7.51907e-07
7.64929e-07
7.77842e-07
7.90613e-07
8.03205e-07
8.15584e-07
8.27711e-07
8.39549e-07
8.51056e-07
8.62193e-07
8.72916e-07
8.83185e-07
8.92955e-07
9.02183e-07
9.10825e-07
9.18837e-07
9.26176e-07
9.32798e-07
9.38659e-07
9.43718e-07
9.47933e-07
9.51263e-07
9.53668e-07
9.55106e-07
9.55544e-07
9.54955e-07
9.533e-07
9.50547e-07
9.46668e-07
9.41635e-07
9.35424e-07
9.28012e-07
9.19381e-07
9.09512e-07
8.98392e-07
8.86008e-07
8.72352e-07
8.57419e-07
8.41206e-07
8.23713e-07
8.04946e-07
7.84911e-07
7.63621e-07
7.41091e-07
7.17343e-07
6.92401e-07
6.66294e-07
6.39059e-07
6.10736e-07
5.81374e-07
5.51026e-07
5.19754e-07
4.87629e-07
4.54728e-07
4.21141e-07
3.86966e-07
3.52315e-07
3.1731e-07
2.82088e-07
2.46801e-07
2.11616e-07
1.76718e-07
1.42307e-07
1.08603e-07
7.58424e-08
4.42782e-08
1.41778e-08
)
;

boundaryField
{
    fixedWall
    {
        type            zeroGradient;
    }
    outlet
    {
        type            inletOutlet;
        inletValue      uniform 0;
        value           uniform 0;
    }
    defaultFaces
    {
        type            empty;
    }
}


// ************************************************************************* //
