/*--------------------------------*- C++ -*----------------------------------*\
| =========                 |                                                 |
| \\      /  F ield         | OpenFOAM: The Open Source CFD Toolbox           |
|  \\    /   O peration     | Version:  2406                                  |
|   \\  /    A nd           | Website:  www.openfoam.com                      |
|    \\/     M anipulation  |                                                 |
\*---------------------------------------------------------------------------*/
FoamFile
{
    version     2.0;
    format      ascii;
    arch        "LSB;label=32;scalar=64";
    class       surfaceScalarField;
    location    "14.1";
    object      phi;
}
// * * * * * * * * * * * * * * * * * * * * * * * * * * * * * * * * * * * * * //

dimensions      [1 0 -1 0 0 0 0];

oriented        oriented;

internalField   nonuniform List<scalar> 
999
(
-1.09296e-08
-3.73007e-08
-7.3977e-08
-1.17686e-07
-1.66242e-07
-2.18143e-07
-2.72334e-07
-3.2806e-07
-3.84769e-07
-4.42048e-07
-4.99596e-07
-5.57176e-07
-6.14621e-07
-6.71794e-07
-7.28595e-07
-7.84947e-07
-8.40785e-07
-8.9607e-07
-9.50762e-07
-1.00484e-06
-1.05829e-06
-1.11109e-06
-1.16323e-06
-1.21472e-06
-1.26554e-06
-1.31571e-06
-1.3652e-06
-1.41404e-06
-1.46223e-06
-1.50976e-06
-1.55665e-06
-1.6029e-06
-1.64852e-06
-1.6935e-06
-1.73787e-06
-1.78163e-06
-1.82477e-06
-1.86732e-06
-1.90927e-06
-1.95064e-06
-1.99142e-06
-2.03164e-06
-2.07128e-06
-2.11037e-06
-2.1489e-06
-2.18688e-06
-2.22432e-06
-2.26123e-06
-2.29761e-06
-2.33346e-06
-2.3688e-06
-2.40362e-06
-2.43794e-06
-2.47175e-06
-2.50508e-06
-2.53791e-06
-2.57025e-06
-2.60212e-06
-2.63351e-06
-2.66444e-06
-2.6949e-06
-2.72489e-06
-2.75444e-06
-2.78353e-06
-2.81217e-06
-2.84038e-06
-2.86814e-06
-2.89548e-06
-2.92239e-06
-2.94887e-06
-2.97494e-06
-3.00059e-06
-3.02583e-06
-3.05066e-06
-3.0751e-06
-3.09913e-06
-3.12277e-06
-3.14602e-06
-3.16888e-06
-3.19137e-06
-3.21347e-06
-3.2352e-06
-3.25657e-06
-3.27756e-06
-3.2982e-06
-3.31848e-06
-3.3384e-06
-3.35797e-06
-3.3772e-06
-3.39609e-06
-3.41463e-06
-3.43284e-06
-3.45072e-06
-3.46828e-06
-3.48551e-06
-3.50242e-06
-3.51901e-06
-3.5353e-06
-3.55127e-06
-3.56694e-06
-3.58231e-06
-3.59739e-06
-3.61216e-06
-3.62666e-06
-3.64086e-06
-3.65478e-06
-3.66842e-06
-3.68179e-06
-3.69488e-06
-3.70771e-06
-3.72028e-06
-3.73258e-06
-3.74463e-06
-3.75642e-06
-3.76796e-06
-3.77926e-06
-3.79031e-06
-3.80113e-06
-3.81171e-06
-3.82206e-06
-3.83218e-06
-3.84207e-06
-3.85174e-06
-3.86119e-06
-3.87043e-06
-3.87946e-06
-3.88828e-06
-3.8969e-06
-3.90531e-06
-3.91353e-06
-3.92155e-06
-3.92938e-06
-3.93702e-06
-3.94448e-06
-3.95175e-06
-3.95885e-06
-3.96577e-06
-3.97252e-06
-3.9791e-06
-3.98552e-06
-3.99177e-06
-3.99787e-06
-4.0038e-06
-4.00959e-06
-4.01522e-06
-4.02071e-06
-4.02605e-06
-4.03125e-06
-4.03631e-06
-4.04123e-06
-4.04602e-06
-4.05068e-06
-4.05521e-06
-4.05962e-06
-4.0639e-06
-4.06807e-06
-4.07212e-06
-4.07605e-06
-4.07987e-06
-4.08358e-06
-4.08718e-06
-4.09068e-06
-4.09407e-06
-4.09737e-06
-4.10056e-06
-4.10366e-06
-4.10668e-06
-4.1096e-06
-4.11244e-06
-4.11519e-06
-4.11786e-06
-4.12045e-06
-4.12295e-06
-4.12537e-06
-4.1277e-06
-4.12996e-06
-4.13215e-06
-4.13426e-06
-4.13631e-06
-4.13831e-06
-4.14024e-06
-4.1421e-06
-4.14391e-06
-4.14566e-06
-4.14734e-06
-4.14896e-06
-4.15054e-06
-4.15207e-06
-4.15355e-06
-4.155e-06
-4.15637e-06
-4.15769e-06
-4.15897e-06
-4.16021e-06
-4.1614e-06
-4.16256e-06
-4.16368e-06
-4.16476e-06
-4.16581e-06
-4.16681e-06
-4.16777e-06
-4.16869e-06
-4.16958e-06
-4.17044e-06
-4.17127e-06
-4.17206e-06
-4.17282e-06
-4.17355e-06
-4.17426e-06
-4.17494e-06
-4.17559e-06
-4.17622e-06
-4.17683e-06
-4.17741e-06
-4.17797e-06
-4.17851e-06
-4.17903e-06
-4.17953e-06
-4.18001e-06
-4.18047e-06
-4.18091e-06
-4.18133e-06
-4.18174e-06
-4.18212e-06
-4.1825e-06
-4.18286e-06
-4.1832e-06
-4.18353e-06
-4.18384e-06
-4.18415e-06
-4.18443e-06
-4.18471e-06
-4.18498e-06
-4.18523e-06
-4.18547e-06
-4.18571e-06
-4.18593e-06
-4.18614e-06
-4.18635e-06
-4.18654e-06
-4.18673e-06
-4.1869e-06
-4.18707e-06
-4.18723e-06
-4.18739e-06
-4.18753e-06
-4.18767e-06
-4.18781e-06
-4.18794e-06
-4.18806e-06
-4.18817e-06
-4.18828e-06
-4.18839e-06
-4.18849e-06
-4.18859e-06
-4.18868e-06
-4.18876e-06
-4.18885e-06
-4.18892e-06
-4.189e-06
-4.18907e-06
-4.18913e-06
-4.1892e-06
-4.18926e-06
-4.18931e-06
-4.18937e-06
-4.18942e-06
-4.18947e-06
-4.18951e-06
-4.18956e-06
-4.1896e-06
-4.18963e-06
-4.18967e-06
-4.18971e-06
-4.18974e-06
-4.18977e-06
-4.1898e-06
-4.18982e-06
-4.18985e-06
-4.18987e-06
-4.1899e-06
-4.18992e-06
-4.18994e-06
-4.18996e-06
-4.18997e-06
-4.18999e-06
-4.19e-06
-4.19002e-06
-4.19003e-06
-4.19004e-06
-4.19006e-06
-4.19007e-06
-4.19008e-06
-4.19008e-06
-4.19009e-06
-4.1901e-06
-4.19011e-06
-4.19011e-06
-4.19012e-06
-4.19012e-06
-4.19013e-06
-4.19013e-06
-4.19014e-06
-4.19014e-06
-4.19014e-06
-4.19015e-06
-4.19015e-06
-4.19015e-06
-4.19015e-06
-4.19015e-06
-4.19016e-06
-4.19016e-06
-4.19016e-06
-4.19016e-06
-4.19016e-06
-4.19016e-06
-4.19016e-06
-4.19016e-06
-4.19016e-06
-4.19016e-06
-4.19016e-06
-4.19016e-06
-4.19015e-06
-4.19015e-06
-4.19015e-06
-4.19015e-06
-4.19015e-06
-4.19015e-06
-4.19015e-06
-4.19015e-06
-4.19015e-06
-4.19015e-06
-4.19014e-06
-4.19014e-06
-4.19014e-06
-4.19014e-06
-4.19014e-06
-4.19014e-06
-4.19013e-06
-4.19013e-06
-4.19013e-06
-4.19013e-06
-4.19013e-06
-4.19013e-06
-4.19012e-06
-4.19012e-06
-4.19012e-06
-4.19012e-06
-4.19012e-06
-4.19012e-06
-4.19012e-06
-4.19012e-06
-4.19011e-06
-4.19011e-06
-4.19011e-06
-4.19011e-06
-4.19011e-06
-4.19011e-06
-4.19011e-06
-4.19011e-06
-4.19011e-06
-4.19011e-06
-4.19011e-06
-4.19011e-06
-4.19011e-06
-4.19011e-06
-4.1901e-06
-4.1901e-06
-4.1901e-06
-4.1901e-06
-4.1901e-06
-4.1901e-06
-4.1901e-06
-4.1901e-06
-4.1901e-06
-4.1901e-06
-4.1901e-06
-4.1901e-06
-4.1901e-06
-4.1901e-06
-4.1901e-06
-4.1901e-06
-4.1901e-06
-4.1901e-06
-4.1901e-06
-4.1901e-06
-4.1901e-06
-4.1901e-06
-4.1901e-06
-4.1901e-06
-4.1901e-06
-4.1901e-06
-4.1901e-06
-4.1901e-06
-4.19011e-06
-4.19011e-06
-4.19011e-06
-4.19011e-06
-4.19011e-06
-4.19011e-06
-4.19011e-06
-4.19011e-06
-4.19011e-06
-4.19011e-06
-4.19011e-06
-4.19011e-06
-4.19011e-06
-4.19011e-06
-4.19011e-06
-4.19011e-06
-4.19011e-06
-4.19011e-06
-4.19011e-06
-4.19011e-06
-4.19011e-06
-4.19011e-06
-4.19011e-06
-4.19011e-06
-4.19011e-06
-4.19011e-06
-4.19011e-06
-4.19011e-06
-4.19011e-06
-4.19011e-06
-4.19011e-06
-4.19011e-06
-4.19011e-06
-4.19011e-06
-4.19011e-06
-4.19011e-06
-4.19012e-06
-4.19012e-06
-4.19012e-06
-4.19012e-06
-4.19012e-06
-4.19012e-06
-4.19012e-06
-4.19012e-06
-4.19012e-06
-4.19012e-06
-4.19012e-06
-4.19012e-06
-4.19012e-06
-4.19012e-06
-4.19012e-06
-4.19012e-06
-4.19012e-06
-4.19012e-06
-4.19012e-06
-4.19012e-06
-4.19012e-06
-4.19012e-06
-4.19012e-06
-4.19012e-06
-4.19012e-06
-4.19012e-06
-4.19012e-06
-4.19012e-06
-4.19012e-06
-4.19012e-06
-4.19012e-06
-4.19012e-06
-4.19012e-06
-4.19012e-06
-4.19012e-06
-4.19012e-06
-4.19012e-06
-4.19012e-06
-4.19012e-06
-4.19012e-06
-4.19012e-06
-4.19012e-06
-4.19012e-06
-4.19012e-06
-4.19012e-06
-4.19012e-06
-4.19012e-06
-4.19012e-06
-4.19012e-06
-4.19012e-06
-4.19012e-06
-4.19012e-06
-4.19012e-06
-4.19012e-06
-4.19012e-06
-4.19012e-06
-4.19012e-06
-4.19012e-06
-4.19012e-06
-4.19012e-06
-4.19012e-06
-4.19012e-06
-4.19012e-06
-4.19012e-06
-4.19012e-06
-4.19012e-06
-4.19012e-06
-4.19011e-06
-4.19011e-06
-4.19011e-06
-4.19011e-06
-4.19011e-06
-4.19012e-06
-4.19011e-06
-4.19011e-06
-4.19011e-06
-4.19011e-06
-4.19011e-06
-4.19011e-06
-4.19011e-06
-4.19011e-06
-4.19011e-06
-4.19011e-06
-4.19011e-06
-4.19011e-06
-4.19011e-06
-4.19011e-06
-4.19011e-06
-4.19011e-06
-4.19011e-06
-4.19011e-06
-4.19011e-06
-4.19011e-06
-4.19011e-06
-4.19011e-06
-4.19011e-06
-4.19011e-06
-4.19011e-06
-4.19011e-06
-4.19011e-06
-4.19011e-06
-4.19011e-06
-4.19011e-06
-4.19011e-06
-4.1901e-06
-4.1901e-06
-4.1901e-06
-4.1901e-06
-4.1901e-06
-4.1901e-06
-4.1901e-06
-4.1901e-06
-4.1901e-06
-4.1901e-06
-4.1901e-06
-4.1901e-06
-4.1901e-06
-4.1901e-06
-4.1901e-06
-4.1901e-06
-4.1901e-06
-4.1901e-06
-4.1901e-06
-4.1901e-06
-4.1901e-06
-4.1901e-06
-4.1901e-06
-4.1901e-06
-4.19009e-06
-4.19009e-06
-4.19009e-06
-4.19009e-06
-4.19009e-06
-4.19009e-06
-4.19009e-06
-4.19009e-06
-4.19009e-06
-4.19009e-06
-4.19009e-06
-4.19009e-06
-4.19009e-06
-4.19009e-06
-4.19009e-06
-4.19009e-06
-4.19009e-06
-4.19009e-06
-4.19009e-06
-4.19008e-06
-4.19008e-06
-4.19008e-06
-4.19008e-06
-4.19008e-06
-4.19008e-06
-4.19008e-06
-4.19008e-06
-4.19008e-06
-4.19008e-06
-4.19008e-06
-4.19008e-06
-4.19008e-06
-4.19008e-06
-4.19008e-06
-4.19008e-06
-4.19008e-06
-4.19008e-06
-4.19008e-06
-4.19008e-06
-4.19008e-06
-4.19008e-06
-4.19008e-06
-4.19008e-06
-4.19008e-06
-4.19008e-06
-4.19008e-06
-4.19008e-06
-4.19008e-06
-4.19008e-06
-4.19008e-06
-4.19008e-06
-4.19008e-06
-4.19008e-06
-4.19008e-06
-4.19008e-06
-4.19008e-06
-4.19008e-06
-4.19008e-06
-4.19008e-06
-4.19008e-06
-4.19008e-06
-4.19008e-06
-4.19008e-06
-4.19008e-06
-4.19008e-06
-4.19008e-06
-4.19008e-06
-4.19008e-06
-4.19008e-06
-4.19008e-06
-4.19008e-06
-4.19008e-06
-4.19008e-06
-4.19008e-06
-4.19008e-06
-4.19008e-06
-4.19008e-06
-4.19008e-06
-4.19008e-06
-4.19008e-06
-4.19008e-06
-4.19008e-06
-4.19008e-06
-4.19008e-06
-4.19008e-06
-4.19008e-06
-4.19008e-06
-4.19008e-06
-4.19007e-06
-4.19008e-06
-4.19007e-06
-4.19007e-06
-4.19008e-06
-4.19007e-06
-4.19007e-06
-4.19007e-06
-4.19007e-06
-4.19007e-06
-4.19007e-06
-4.19007e-06
-4.19007e-06
-4.19007e-06
-4.19007e-06
-4.19007e-06
-4.19007e-06
-4.19007e-06
-4.19007e-06
-4.19007e-06
-4.19007e-06
-4.19007e-06
-4.19007e-06
-4.19007e-06
-4.19007e-06
-4.19007e-06
-4.19007e-06
-4.19007e-06
-4.19007e-06
-4.19007e-06
-4.19007e-06
-4.19007e-06
-4.19007e-06
-4.19007e-06
-4.19007e-06
-4.19007e-06
-4.19007e-06
-4.19007e-06
-4.19007e-06
-4.19007e-06
-4.19007e-06
-4.19007e-06
-4.19007e-06
-4.19007e-06
-4.19007e-06
-4.19007e-06
-4.19007e-06
-4.19007e-06
-4.19007e-06
-4.19008e-06
-4.19008e-06
-4.19008e-06
-4.19008e-06
-4.19008e-06
-4.19008e-06
-4.19009e-06
-4.19009e-06
-4.19009e-06
-4.1901e-06
-4.1901e-06
-4.19011e-06
-4.19011e-06
-4.19012e-06
-4.19012e-06
-4.19013e-06
-4.19013e-06
-4.19014e-06
-4.19015e-06
-4.19016e-06
-4.19016e-06
-4.19017e-06
-4.19018e-06
-4.19019e-06
-4.1902e-06
-4.19022e-06
-4.19023e-06
-4.19024e-06
-4.19026e-06
-4.19028e-06
-4.19029e-06
-4.19031e-06
-4.19033e-06
-4.19035e-06
-4.19037e-06
-4.1904e-06
-4.19042e-06
-4.19045e-06
-4.19048e-06
-4.19051e-06
-4.19055e-06
-4.19058e-06
-4.19062e-06
-4.19066e-06
-4.19071e-06
-4.19075e-06
-4.1908e-06
-4.19086e-06
-4.19091e-06
-4.19097e-06
-4.19104e-06
-4.19111e-06
-4.19118e-06
-4.19126e-06
-4.19134e-06
-4.19143e-06
-4.19152e-06
-4.19162e-06
-4.19173e-06
-4.19184e-06
-4.19196e-06
-4.19209e-06
-4.19222e-06
-4.19237e-06
-4.19252e-06
-4.19268e-06
-4.19285e-06
-4.19303e-06
-4.19323e-06
-4.19343e-06
-4.19365e-06
-4.19388e-06
-4.19413e-06
-4.19439e-06
-4.19466e-06
-4.19495e-06
-4.19526e-06
-4.19558e-06
-4.19593e-06
-4.19629e-06
-4.19668e-06
-4.19708e-06
-4.19751e-06
-4.19797e-06
-4.19845e-06
-4.19896e-06
-4.19949e-06
-4.20006e-06
-4.20065e-06
-4.20128e-06
-4.20194e-06
-4.20264e-06
-4.20338e-06
-4.20416e-06
-4.20498e-06
-4.20584e-06
-4.20674e-06
-4.2077e-06
-4.2087e-06
-4.20976e-06
-4.21087e-06
-4.21204e-06
-4.21327e-06
-4.21456e-06
-4.21591e-06
-4.21734e-06
-4.21883e-06
-4.2204e-06
-4.22205e-06
-4.22377e-06
-4.22558e-06
-4.22748e-06
-4.22947e-06
-4.23155e-06
-4.23373e-06
-4.23602e-06
-4.23841e-06
-4.24091e-06
-4.24353e-06
-4.24626e-06
-4.24913e-06
-4.25212e-06
-4.25524e-06
-4.25851e-06
-4.26192e-06
-4.26548e-06
-4.26919e-06
-4.27307e-06
-4.27712e-06
-4.28133e-06
-4.28573e-06
-4.29031e-06
-4.29509e-06
-4.30006e-06
-4.30524e-06
-4.31063e-06
-4.31624e-06
-4.32208e-06
-4.32815e-06
-4.33446e-06
-4.34102e-06
-4.34784e-06
-4.35493e-06
-4.36229e-06
-4.36993e-06
-4.37786e-06
-4.38609e-06
-4.39463e-06
-4.40348e-06
-4.41267e-06
-4.42218e-06
-4.43205e-06
-4.44227e-06
-4.45285e-06
-4.46381e-06
-4.47516e-06
-4.4869e-06
-4.49904e-06
-4.51161e-06
-4.5246e-06
-4.53803e-06
-4.55191e-06
-4.56625e-06
-4.58106e-06
-4.59636e-06
-4.61215e-06
-4.62845e-06
-4.64527e-06
-4.66262e-06
-4.68051e-06
-4.69896e-06
-4.71798e-06
-4.73757e-06
-4.75777e-06
-4.77857e-06
-4.79998e-06
-4.82203e-06
-4.84473e-06
-4.86808e-06
-4.89211e-06
-4.91683e-06
-4.94224e-06
-4.96836e-06
-4.99522e-06
-5.02281e-06
-5.05116e-06
-5.08028e-06
-5.11018e-06
-5.14088e-06
-5.17239e-06
-5.20472e-06
-5.2379e-06
-5.27193e-06
-5.30684e-06
-5.34263e-06
-5.37932e-06
-5.41692e-06
-5.45545e-06
-5.49493e-06
-5.53537e-06
-5.57679e-06
-5.61919e-06
-5.66261e-06
-5.70705e-06
-5.75252e-06
-5.79905e-06
-5.84665e-06
-5.89534e-06
-5.94513e-06
-5.99604e-06
-6.04808e-06
-6.10128e-06
-6.15565e-06
-6.2112e-06
-6.26796e-06
-6.32593e-06
-6.38515e-06
-6.44562e-06
-6.50736e-06
-6.57039e-06
-6.63474e-06
-6.70041e-06
-6.76743e-06
-6.83581e-06
-6.90558e-06
-6.97676e-06
-7.04936e-06
-7.1234e-06
-7.19891e-06
-7.27591e-06
-7.35441e-06
-7.43444e-06
-7.51603e-06
-7.59919e-06
-7.68395e-06
-7.77033e-06
-7.85835e-06
-7.94805e-06
-8.03945e-06
-8.13256e-06
-8.22743e-06
-8.32407e-06
-8.42252e-06
-8.52281e-06
-8.62496e-06
-8.729e-06
-8.83498e-06
-8.94291e-06
-9.05283e-06
-9.16479e-06
-9.27881e-06
-9.39493e-06
-9.51319e-06
-9.63363e-06
-9.7563e-06
-9.88125e-06
-1.00085e-05
-1.01382e-05
-1.02703e-05
-1.04049e-05
-1.05422e-05
-1.06812e-05
-1.08229e-05
-1.09674e-05
-1.11148e-05
-1.12651e-05
-1.14183e-05
-1.15745e-05
-1.17338e-05
-1.1896e-05
-1.20614e-05
-1.22298e-05
-1.24015e-05
-1.25763e-05
-1.27545e-05
-1.29359e-05
-1.31206e-05
-1.33088e-05
-1.35002e-05
-1.3695e-05
-1.38931e-05
-1.40945e-05
-1.42991e-05
-1.45067e-05
-1.47172e-05
-1.49304e-05
-1.5146e-05
-1.53636e-05
-1.55829e-05
-1.58032e-05
-1.6024e-05
-1.62445e-05
-1.64636e-05
-1.66802e-05
-1.68929e-05
-1.71002e-05
-1.73001e-05
-1.74902e-05
-1.7668e-05
-1.78303e-05
-1.79735e-05
-1.80937e-05
-1.81861e-05
-1.82457e-05
)
;

boundaryField
{
    fixedWall
    {
        type            calculated;
        value           uniform 0;
    }
    outlet
    {
        type            calculated;
        value           uniform -1.82668e-05;
    }
    defaultFaces
    {
        type            empty;
    }
}


// ************************************************************************* //
