/*--------------------------------*- C++ -*----------------------------------*\
| =========                 |                                                 |
| \\      /  F ield         | OpenFOAM: The Open Source CFD Toolbox           |
|  \\    /   O peration     | Version:  2406                                  |
|   \\  /    A nd           | Website:  www.openfoam.com                      |
|    \\/     M anipulation  |                                                 |
\*---------------------------------------------------------------------------*/
FoamFile
{
    version     2.0;
    format      ascii;
    arch        "LSB;label=32;scalar=64";
    class       volScalarField;
    location    "14";
    object      O2;
}
// * * * * * * * * * * * * * * * * * * * * * * * * * * * * * * * * * * * * * //

dimensions      [0 0 0 0 0 0 0];

internalField   nonuniform List<scalar> 
1000
(
1.00637e-06
1.00501e-06
1.00251e-06
9.9903e-07
9.94703e-07
9.89632e-07
9.83898e-07
9.77573e-07
9.70717e-07
9.63379e-07
9.55606e-07
9.47437e-07
9.38908e-07
9.30049e-07
9.2089e-07
9.11456e-07
9.01772e-07
8.91861e-07
8.81741e-07
8.71433e-07
8.60954e-07
8.50321e-07
8.3955e-07
8.28655e-07
8.1765e-07
8.06549e-07
7.95364e-07
7.84109e-07
7.72793e-07
7.6143e-07
7.50028e-07
7.386e-07
7.27156e-07
7.15704e-07
7.04255e-07
6.92818e-07
6.81402e-07
6.70017e-07
6.5867e-07
6.4737e-07
6.36126e-07
6.24945e-07
6.13834e-07
6.02803e-07
5.91857e-07
5.81004e-07
5.7025e-07
5.59603e-07
5.49067e-07
5.3865e-07
5.28356e-07
5.18192e-07
5.08162e-07
4.9827e-07
4.88522e-07
4.7892e-07
4.6947e-07
4.60174e-07
4.51036e-07
4.42058e-07
4.33242e-07
4.24592e-07
4.16107e-07
4.07791e-07
3.99644e-07
3.91667e-07
3.83861e-07
3.76226e-07
3.68762e-07
3.61469e-07
3.54347e-07
3.47395e-07
3.40612e-07
3.33996e-07
3.27548e-07
3.21265e-07
3.15145e-07
3.09187e-07
3.0339e-07
2.9775e-07
2.92266e-07
2.86936e-07
2.81757e-07
2.76727e-07
2.71843e-07
2.67103e-07
2.62503e-07
2.58042e-07
2.53717e-07
2.49524e-07
2.45461e-07
2.41525e-07
2.37714e-07
2.34024e-07
2.30453e-07
2.26997e-07
2.23654e-07
2.20422e-07
2.17297e-07
2.14276e-07
2.11358e-07
2.08539e-07
2.05816e-07
2.03187e-07
2.00649e-07
1.982e-07
1.95837e-07
1.93557e-07
1.91359e-07
1.8924e-07
1.87197e-07
1.85229e-07
1.83332e-07
1.81505e-07
1.79746e-07
1.78052e-07
1.76422e-07
1.74853e-07
1.73343e-07
1.71891e-07
1.70495e-07
1.69153e-07
1.67863e-07
1.66623e-07
1.65431e-07
1.64287e-07
1.63189e-07
1.62134e-07
1.61122e-07
1.60151e-07
1.59219e-07
1.58325e-07
1.57469e-07
1.56648e-07
1.55861e-07
1.55108e-07
1.54386e-07
1.53696e-07
1.53035e-07
1.52402e-07
1.51798e-07
1.51219e-07
1.50667e-07
1.50139e-07
1.49635e-07
1.49154e-07
1.48695e-07
1.48258e-07
1.4784e-07
1.47443e-07
1.47064e-07
1.46704e-07
1.46361e-07
1.46035e-07
1.45725e-07
1.45431e-07
1.45152e-07
1.44888e-07
1.44637e-07
1.444e-07
1.44175e-07
1.43963e-07
1.43763e-07
1.43574e-07
1.43396e-07
1.43228e-07
1.43071e-07
1.42923e-07
1.42785e-07
1.42656e-07
1.42535e-07
1.42422e-07
1.42317e-07
1.4222e-07
1.4213e-07
1.42048e-07
1.41971e-07
1.41902e-07
1.41838e-07
1.4178e-07
1.41729e-07
1.41682e-07
1.41641e-07
1.41604e-07
1.41573e-07
1.41546e-07
1.41523e-07
1.41505e-07
1.41491e-07
1.4148e-07
1.41474e-07
1.4147e-07
1.41471e-07
1.41474e-07
1.41481e-07
1.4149e-07
1.41503e-07
1.41518e-07
1.41535e-07
1.41556e-07
1.41578e-07
1.41603e-07
1.4163e-07
1.4166e-07
1.41691e-07
1.41724e-07
1.41759e-07
1.41796e-07
1.41834e-07
1.41874e-07
1.41916e-07
1.41959e-07
1.42003e-07
1.42049e-07
1.42096e-07
1.42144e-07
1.42194e-07
1.42245e-07
1.42296e-07
1.42349e-07
1.42402e-07
1.42457e-07
1.42513e-07
1.42569e-07
1.42626e-07
1.42684e-07
1.42742e-07
1.42802e-07
1.42862e-07
1.42923e-07
1.42984e-07
1.43046e-07
1.43109e-07
1.43171e-07
1.43235e-07
1.43299e-07
1.43363e-07
1.43428e-07
1.43494e-07
1.43559e-07
1.43626e-07
1.43692e-07
1.43759e-07
1.43826e-07
1.43894e-07
1.43962e-07
1.4403e-07
1.44099e-07
1.44167e-07
1.44236e-07
1.44306e-07
1.44375e-07
1.44445e-07
1.44515e-07
1.44585e-07
1.44656e-07
1.44726e-07
1.44797e-07
1.44868e-07
1.44939e-07
1.45011e-07
1.45082e-07
1.45153e-07
1.45225e-07
1.45297e-07
1.45369e-07
1.45441e-07
1.45514e-07
1.45586e-07
1.45659e-07
1.45731e-07
1.45804e-07
1.45877e-07
1.4595e-07
1.46023e-07
1.46097e-07
1.4617e-07
1.46243e-07
1.46317e-07
1.4639e-07
1.46464e-07
1.46538e-07
1.46612e-07
1.46686e-07
1.4676e-07
1.46834e-07
1.46908e-07
1.46982e-07
1.47057e-07
1.47131e-07
1.47206e-07
1.4728e-07
1.47355e-07
1.47429e-07
1.47504e-07
1.47579e-07
1.47654e-07
1.47729e-07
1.47804e-07
1.47879e-07
1.47954e-07
1.48029e-07
1.48105e-07
1.4818e-07
1.48256e-07
1.48331e-07
1.48407e-07
1.48482e-07
1.48558e-07
1.48634e-07
1.4871e-07
1.48786e-07
1.48862e-07
1.48938e-07
1.49014e-07
1.4909e-07
1.49166e-07
1.49243e-07
1.49319e-07
1.49396e-07
1.49472e-07
1.49549e-07
1.49625e-07
1.49702e-07
1.49779e-07
1.49856e-07
1.49933e-07
1.5001e-07
1.50087e-07
1.50164e-07
1.50241e-07
1.50318e-07
1.50396e-07
1.50473e-07
1.50551e-07
1.50628e-07
1.50706e-07
1.50784e-07
1.50861e-07
1.50939e-07
1.51017e-07
1.51095e-07
1.51173e-07
1.51252e-07
1.5133e-07
1.51408e-07
1.51487e-07
1.51565e-07
1.51644e-07
1.51722e-07
1.51801e-07
1.5188e-07
1.51959e-07
1.52038e-07
1.52117e-07
1.52196e-07
1.52275e-07
1.52354e-07
1.52434e-07
1.52513e-07
1.52593e-07
1.52672e-07
1.52752e-07
1.52832e-07
1.52912e-07
1.52992e-07
1.53072e-07
1.53152e-07
1.53232e-07
1.53312e-07
1.53393e-07
1.53473e-07
1.53554e-07
1.53634e-07
1.53715e-07
1.53796e-07
1.53877e-07
1.53958e-07
1.54039e-07
1.5412e-07
1.54201e-07
1.54282e-07
1.54364e-07
1.54445e-07
1.54527e-07
1.54609e-07
1.5469e-07
1.54772e-07
1.54854e-07
1.54936e-07
1.55018e-07
1.55101e-07
1.55183e-07
1.55266e-07
1.55348e-07
1.5543e-07
1.55513e-07
1.55596e-07
1.55679e-07
1.55762e-07
1.55845e-07
1.55928e-07
1.56011e-07
1.56095e-07
1.56178e-07
1.56261e-07
1.56345e-07
1.56429e-07
1.56512e-07
1.56596e-07
1.5668e-07
1.56764e-07
1.56849e-07
1.56933e-07
1.57017e-07
1.57102e-07
1.57186e-07
1.57271e-07
1.57355e-07
1.5744e-07
1.57525e-07
1.5761e-07
1.57695e-07
1.5778e-07
1.57866e-07
1.57951e-07
1.58036e-07
1.58122e-07
1.58208e-07
1.58293e-07
1.58379e-07
1.58465e-07
1.58551e-07
1.58637e-07
1.58724e-07
1.5881e-07
1.58896e-07
1.58983e-07
1.59069e-07
1.59156e-07
1.59243e-07
1.5933e-07
1.59417e-07
1.59504e-07
1.59591e-07
1.59678e-07
1.59765e-07
1.59853e-07
1.59941e-07
1.60028e-07
1.60116e-07
1.60204e-07
1.60292e-07
1.6038e-07
1.60468e-07
1.60556e-07
1.60645e-07
1.60733e-07
1.60822e-07
1.6091e-07
1.60999e-07
1.61088e-07
1.61177e-07
1.61266e-07
1.61355e-07
1.61444e-07
1.61534e-07
1.61623e-07
1.61712e-07
1.61802e-07
1.61892e-07
1.61982e-07
1.62071e-07
1.62161e-07
1.62252e-07
1.62342e-07
1.62432e-07
1.62523e-07
1.62613e-07
1.62704e-07
1.62795e-07
1.62885e-07
1.62976e-07
1.63067e-07
1.63159e-07
1.6325e-07
1.63341e-07
1.63433e-07
1.63524e-07
1.63616e-07
1.63708e-07
1.638e-07
1.63892e-07
1.63984e-07
1.64076e-07
1.64168e-07
1.6426e-07
1.64353e-07
1.64445e-07
1.64538e-07
1.64631e-07
1.64724e-07
1.64817e-07
1.6491e-07
1.65003e-07
1.65096e-07
1.6519e-07
1.65283e-07
1.65377e-07
1.65471e-07
1.65565e-07
1.65659e-07
1.65753e-07
1.65847e-07
1.65941e-07
1.66036e-07
1.6613e-07
1.66225e-07
1.66319e-07
1.66414e-07
1.66509e-07
1.66604e-07
1.667e-07
1.66794e-07
1.6689e-07
1.66985e-07
1.67081e-07
1.67177e-07
1.67273e-07
1.67369e-07
1.67465e-07
1.6756e-07
1.67657e-07
1.67753e-07
1.6785e-07
1.67946e-07
1.68043e-07
1.68139e-07
1.68236e-07
1.68333e-07
1.68431e-07
1.68528e-07
1.68625e-07
1.68723e-07
1.6882e-07
1.68918e-07
1.69016e-07
1.69113e-07
1.69212e-07
1.6931e-07
1.69408e-07
1.69506e-07
1.69605e-07
1.69703e-07
1.69802e-07
1.69901e-07
1.7e-07
1.70099e-07
1.70198e-07
1.70297e-07
1.70397e-07
1.70496e-07
1.70596e-07
1.70695e-07
1.70795e-07
1.70895e-07
1.70995e-07
1.71095e-07
1.71196e-07
1.71296e-07
1.71397e-07
1.71497e-07
1.71598e-07
1.71699e-07
1.718e-07
1.71901e-07
1.72002e-07
1.72104e-07
1.72205e-07
1.72307e-07
1.72409e-07
1.72511e-07
1.72613e-07
1.72715e-07
1.72817e-07
1.72919e-07
1.73022e-07
1.73124e-07
1.73227e-07
1.7333e-07
1.73433e-07
1.73536e-07
1.73639e-07
1.73742e-07
1.73846e-07
1.73949e-07
1.74053e-07
1.74157e-07
1.74261e-07
1.74365e-07
1.74469e-07
1.74573e-07
1.74678e-07
1.74782e-07
1.74887e-07
1.74992e-07
1.75097e-07
1.75202e-07
1.75307e-07
1.75413e-07
1.75518e-07
1.75624e-07
1.75729e-07
1.75835e-07
1.75941e-07
1.76047e-07
1.76154e-07
1.7626e-07
1.76366e-07
1.76473e-07
1.7658e-07
1.76687e-07
1.76794e-07
1.76901e-07
1.77008e-07
1.77116e-07
1.77223e-07
1.77331e-07
1.77439e-07
1.77547e-07
1.77655e-07
1.77763e-07
1.77871e-07
1.7798e-07
1.78088e-07
1.78197e-07
1.78306e-07
1.78415e-07
1.78524e-07
1.78633e-07
1.78743e-07
1.78852e-07
1.78962e-07
1.79072e-07
1.79182e-07
1.79292e-07
1.79402e-07
1.79512e-07
1.79623e-07
1.79734e-07
1.79844e-07
1.79955e-07
1.80066e-07
1.80177e-07
1.80289e-07
1.804e-07
1.80512e-07
1.80624e-07
1.80735e-07
1.80847e-07
1.8096e-07
1.81072e-07
1.81184e-07
1.81297e-07
1.81409e-07
1.81522e-07
1.81635e-07
1.81748e-07
1.81862e-07
1.81975e-07
1.82089e-07
1.82202e-07
1.82316e-07
1.8243e-07
1.82544e-07
1.82658e-07
1.82772e-07
1.82887e-07
1.83001e-07
1.83116e-07
1.83231e-07
1.83346e-07
1.83461e-07
1.83576e-07
1.83692e-07
1.83807e-07
1.83923e-07
1.84039e-07
1.84155e-07
1.84271e-07
1.84388e-07
1.84504e-07
1.84621e-07
1.84738e-07
1.84854e-07
1.84971e-07
1.85088e-07
1.85206e-07
1.85323e-07
1.85441e-07
1.85559e-07
1.85676e-07
1.85795e-07
1.85913e-07
1.86031e-07
1.8615e-07
1.86268e-07
1.86387e-07
1.86506e-07
1.86625e-07
1.86745e-07
1.86864e-07
1.86984e-07
1.87104e-07
1.87224e-07
1.87344e-07
1.87464e-07
1.87585e-07
1.87705e-07
1.87826e-07
1.87947e-07
1.88068e-07
1.88189e-07
1.88311e-07
1.88433e-07
1.88554e-07
1.88676e-07
1.88799e-07
1.88921e-07
1.89044e-07
1.89166e-07
1.89289e-07
1.89412e-07
1.89536e-07
1.89659e-07
1.89783e-07
1.89907e-07
1.90031e-07
1.90156e-07
1.9028e-07
1.90405e-07
1.9053e-07
1.90656e-07
1.90781e-07
1.90907e-07
1.91033e-07
1.9116e-07
1.91286e-07
1.91413e-07
1.9154e-07
1.91668e-07
1.91795e-07
1.91924e-07
1.92052e-07
1.92181e-07
1.9231e-07
1.92439e-07
1.92569e-07
1.92699e-07
1.9283e-07
1.92961e-07
1.93093e-07
1.93224e-07
1.93357e-07
1.9349e-07
1.93623e-07
1.93757e-07
1.93892e-07
1.94027e-07
1.94163e-07
1.94299e-07
1.94437e-07
1.94574e-07
1.94713e-07
1.94853e-07
1.94993e-07
1.95134e-07
1.95276e-07
1.9542e-07
1.95564e-07
1.95709e-07
1.95856e-07
1.96003e-07
1.96153e-07
1.96303e-07
1.96455e-07
1.96608e-07
1.96763e-07
1.9692e-07
1.97079e-07
1.97239e-07
1.97402e-07
1.97567e-07
1.97733e-07
1.97903e-07
1.98075e-07
1.98249e-07
1.98427e-07
1.98607e-07
1.98791e-07
1.98977e-07
1.99168e-07
1.99362e-07
1.9956e-07
1.99762e-07
1.99969e-07
2.0018e-07
2.00396e-07
2.00618e-07
2.00844e-07
2.01077e-07
2.01316e-07
2.01561e-07
2.01813e-07
2.02072e-07
2.02338e-07
2.02613e-07
2.02896e-07
2.03187e-07
2.03488e-07
2.03799e-07
2.0412e-07
2.04452e-07
2.04796e-07
2.05151e-07
2.05519e-07
2.05901e-07
2.06296e-07
2.06707e-07
2.07132e-07
2.07574e-07
2.08034e-07
2.08511e-07
2.09007e-07
2.09523e-07
2.1006e-07
2.10618e-07
2.112e-07
2.11806e-07
2.12437e-07
2.13094e-07
2.13779e-07
2.14493e-07
2.15238e-07
2.16015e-07
2.16824e-07
2.17669e-07
2.18551e-07
2.19471e-07
2.2043e-07
2.21432e-07
2.22477e-07
2.23568e-07
2.24707e-07
2.25896e-07
2.27136e-07
2.28431e-07
2.29783e-07
2.31193e-07
2.32665e-07
2.34202e-07
2.35805e-07
2.37478e-07
2.39224e-07
2.41045e-07
2.42944e-07
2.44925e-07
2.46992e-07
2.49146e-07
2.51392e-07
2.53733e-07
2.56174e-07
2.58716e-07
2.61365e-07
2.64125e-07
2.66999e-07
2.69991e-07
2.73105e-07
2.76347e-07
2.79719e-07
2.83228e-07
2.86876e-07
2.90669e-07
2.94612e-07
2.98709e-07
3.02964e-07
3.07384e-07
3.11971e-07
3.16733e-07
3.21672e-07
3.26795e-07
3.32106e-07
3.3761e-07
3.43312e-07
3.49217e-07
3.55329e-07
3.61653e-07
3.68194e-07
3.74956e-07
3.81943e-07
3.8916e-07
3.9661e-07
4.04296e-07
4.12223e-07
4.20393e-07
4.28808e-07
4.37472e-07
4.46385e-07
4.5555e-07
4.64966e-07
4.74634e-07
4.84555e-07
4.94726e-07
5.05145e-07
5.15811e-07
5.26719e-07
5.37866e-07
5.49245e-07
5.60851e-07
5.72675e-07
5.8471e-07
5.96944e-07
6.09368e-07
6.21967e-07
6.34728e-07
6.47636e-07
6.60673e-07
6.73821e-07
6.8706e-07
7.00367e-07
7.1372e-07
7.27092e-07
7.40457e-07
7.53787e-07
7.67051e-07
7.80217e-07
7.93252e-07
8.0612e-07
8.18785e-07
8.31209e-07
8.43352e-07
8.55175e-07
8.66634e-07
8.77688e-07
8.88293e-07
8.98405e-07
9.07979e-07
9.16971e-07
9.25334e-07
9.33024e-07
9.39996e-07
9.46205e-07
9.51608e-07
9.56161e-07
9.59822e-07
9.62551e-07
9.64305e-07
9.6504e-07
9.64739e-07
9.63358e-07
9.60862e-07
9.57222e-07
9.52409e-07
9.46398e-07
9.39165e-07
9.30688e-07
9.2095e-07
9.09935e-07
8.97631e-07
8.84027e-07
8.69117e-07
8.52898e-07
8.35369e-07
8.16535e-07
7.96403e-07
7.74985e-07
7.52295e-07
7.28353e-07
7.03186e-07
6.76822e-07
6.49297e-07
6.20652e-07
5.90936e-07
5.60202e-07
5.28515e-07
4.95944e-07
4.6257e-07
4.28482e-07
3.93781e-07
3.5858e-07
3.23004e-07
2.87193e-07
2.51302e-07
2.15502e-07
1.79982e-07
1.44948e-07
1.10625e-07
7.72568e-08
4.51035e-08
1.44409e-08
)
;

boundaryField
{
    fixedWall
    {
        type            zeroGradient;
    }
    outlet
    {
        type            inletOutlet;
        inletValue      uniform 0;
        value           uniform 0;
    }
    defaultFaces
    {
        type            empty;
    }
}


// ************************************************************************* //
