/*--------------------------------*- C++ -*----------------------------------*\
| =========                 |                                                 |
| \\      /  F ield         | OpenFOAM: The Open Source CFD Toolbox           |
|  \\    /   O peration     | Version:  2406                                  |
|   \\  /    A nd           | Website:  www.openfoam.com                      |
|    \\/     M anipulation  |                                                 |
\*---------------------------------------------------------------------------*/
FoamFile
{
    version     2.0;
    format      ascii;
    arch        "LSB;label=32;scalar=64";
    class       surfaceScalarField;
    location    "14";
    object      phi;
}
// * * * * * * * * * * * * * * * * * * * * * * * * * * * * * * * * * * * * * //

dimensions      [1 0 -1 0 0 0 0];

oriented        oriented;

internalField   nonuniform List<scalar> 
999
(
-1.10515e-08
-3.7684e-08
-7.47115e-08
-1.18825e-07
-1.67807e-07
-2.2015e-07
-2.74793e-07
-3.30965e-07
-3.88115e-07
-4.45832e-07
-5.03814e-07
-5.61819e-07
-6.19682e-07
-6.77264e-07
-7.34463e-07
-7.91201e-07
-8.47419e-07
-9.03075e-07
-9.58132e-07
-1.01256e-06
-1.06636e-06
-1.1195e-06
-1.17197e-06
-1.22378e-06
-1.27492e-06
-1.32539e-06
-1.37519e-06
-1.42433e-06
-1.4728e-06
-1.52062e-06
-1.56778e-06
-1.61429e-06
-1.66017e-06
-1.70542e-06
-1.75004e-06
-1.79403e-06
-1.83742e-06
-1.88019e-06
-1.92237e-06
-1.96396e-06
-2.00496e-06
-2.04538e-06
-2.08523e-06
-2.12452e-06
-2.16324e-06
-2.20142e-06
-2.23904e-06
-2.27613e-06
-2.31268e-06
-2.3487e-06
-2.3842e-06
-2.41918e-06
-2.45366e-06
-2.48762e-06
-2.52109e-06
-2.55406e-06
-2.58655e-06
-2.61855e-06
-2.65007e-06
-2.68112e-06
-2.7117e-06
-2.74181e-06
-2.77147e-06
-2.80067e-06
-2.82942e-06
-2.85772e-06
-2.88559e-06
-2.91302e-06
-2.94002e-06
-2.96659e-06
-2.99274e-06
-3.01847e-06
-3.04379e-06
-3.06869e-06
-3.0932e-06
-3.1173e-06
-3.141e-06
-3.16431e-06
-3.18724e-06
-3.20977e-06
-3.23193e-06
-3.25371e-06
-3.27512e-06
-3.29616e-06
-3.31684e-06
-3.33715e-06
-3.35711e-06
-3.37671e-06
-3.39597e-06
-3.41488e-06
-3.43345e-06
-3.45168e-06
-3.46959e-06
-3.48716e-06
-3.5044e-06
-3.52133e-06
-3.53793e-06
-3.55422e-06
-3.57021e-06
-3.58588e-06
-3.60125e-06
-3.61633e-06
-3.63111e-06
-3.64559e-06
-3.65979e-06
-3.67371e-06
-3.68734e-06
-3.7007e-06
-3.71378e-06
-3.7266e-06
-3.73914e-06
-3.75143e-06
-3.76346e-06
-3.77523e-06
-3.78676e-06
-3.79803e-06
-3.80907e-06
-3.81986e-06
-3.83041e-06
-3.84073e-06
-3.85083e-06
-3.86069e-06
-3.87034e-06
-3.87976e-06
-3.88897e-06
-3.89797e-06
-3.90676e-06
-3.91534e-06
-3.92372e-06
-3.93191e-06
-3.93989e-06
-3.94769e-06
-3.9553e-06
-3.96272e-06
-3.96996e-06
-3.97702e-06
-3.98391e-06
-3.99062e-06
-3.99716e-06
-4.00354e-06
-4.00976e-06
-4.01581e-06
-4.02171e-06
-4.02746e-06
-4.03305e-06
-4.0385e-06
-4.0438e-06
-4.04896e-06
-4.05398e-06
-4.05887e-06
-4.06362e-06
-4.06824e-06
-4.07274e-06
-4.07711e-06
-4.08136e-06
-4.08548e-06
-4.08949e-06
-4.09339e-06
-4.09717e-06
-4.10085e-06
-4.10441e-06
-4.10787e-06
-4.11123e-06
-4.11449e-06
-4.11765e-06
-4.12073e-06
-4.12371e-06
-4.1266e-06
-4.12941e-06
-4.13212e-06
-4.13476e-06
-4.13731e-06
-4.13978e-06
-4.14217e-06
-4.14448e-06
-4.14672e-06
-4.14888e-06
-4.15098e-06
-4.153e-06
-4.15496e-06
-4.15687e-06
-4.15872e-06
-4.16052e-06
-4.16225e-06
-4.16392e-06
-4.16552e-06
-4.16706e-06
-4.16856e-06
-4.17e-06
-4.17139e-06
-4.17274e-06
-4.17404e-06
-4.17529e-06
-4.1765e-06
-4.17767e-06
-4.1788e-06
-4.17989e-06
-4.18094e-06
-4.18195e-06
-4.18293e-06
-4.18387e-06
-4.18477e-06
-4.18564e-06
-4.18648e-06
-4.18728e-06
-4.18806e-06
-4.18881e-06
-4.18953e-06
-4.19022e-06
-4.19089e-06
-4.19153e-06
-4.19214e-06
-4.19274e-06
-4.19331e-06
-4.19386e-06
-4.19439e-06
-4.1949e-06
-4.19538e-06
-4.19585e-06
-4.1963e-06
-4.19673e-06
-4.19714e-06
-4.19754e-06
-4.19792e-06
-4.19828e-06
-4.19863e-06
-4.19896e-06
-4.19928e-06
-4.19958e-06
-4.19988e-06
-4.20016e-06
-4.20043e-06
-4.20068e-06
-4.20093e-06
-4.20117e-06
-4.20139e-06
-4.2016e-06
-4.20181e-06
-4.20201e-06
-4.20219e-06
-4.20237e-06
-4.20254e-06
-4.20271e-06
-4.20286e-06
-4.20301e-06
-4.20316e-06
-4.20329e-06
-4.20342e-06
-4.20354e-06
-4.20366e-06
-4.20377e-06
-4.20388e-06
-4.20398e-06
-4.20408e-06
-4.20417e-06
-4.20426e-06
-4.20434e-06
-4.20442e-06
-4.20449e-06
-4.20457e-06
-4.20463e-06
-4.2047e-06
-4.20476e-06
-4.20482e-06
-4.20487e-06
-4.20492e-06
-4.20497e-06
-4.20502e-06
-4.20506e-06
-4.2051e-06
-4.20514e-06
-4.20518e-06
-4.20521e-06
-4.20525e-06
-4.20528e-06
-4.20531e-06
-4.20534e-06
-4.20536e-06
-4.20539e-06
-4.20541e-06
-4.20543e-06
-4.20545e-06
-4.20547e-06
-4.20548e-06
-4.2055e-06
-4.20552e-06
-4.20553e-06
-4.20554e-06
-4.20556e-06
-4.20557e-06
-4.20558e-06
-4.20559e-06
-4.2056e-06
-4.2056e-06
-4.20561e-06
-4.20562e-06
-4.20562e-06
-4.20563e-06
-4.20564e-06
-4.20564e-06
-4.20565e-06
-4.20565e-06
-4.20565e-06
-4.20566e-06
-4.20566e-06
-4.20566e-06
-4.20566e-06
-4.20566e-06
-4.20567e-06
-4.20567e-06
-4.20567e-06
-4.20567e-06
-4.20567e-06
-4.20567e-06
-4.20567e-06
-4.20567e-06
-4.20567e-06
-4.20567e-06
-4.20566e-06
-4.20566e-06
-4.20566e-06
-4.20566e-06
-4.20566e-06
-4.20566e-06
-4.20566e-06
-4.20566e-06
-4.20565e-06
-4.20565e-06
-4.20565e-06
-4.20565e-06
-4.20565e-06
-4.20565e-06
-4.20565e-06
-4.20564e-06
-4.20564e-06
-4.20564e-06
-4.20564e-06
-4.20564e-06
-4.20564e-06
-4.20564e-06
-4.20563e-06
-4.20563e-06
-4.20563e-06
-4.20563e-06
-4.20563e-06
-4.20563e-06
-4.20563e-06
-4.20562e-06
-4.20562e-06
-4.20562e-06
-4.20562e-06
-4.20562e-06
-4.20562e-06
-4.20562e-06
-4.20561e-06
-4.20561e-06
-4.20561e-06
-4.20561e-06
-4.20561e-06
-4.20561e-06
-4.20561e-06
-4.20561e-06
-4.20561e-06
-4.20561e-06
-4.20561e-06
-4.20561e-06
-4.20561e-06
-4.20561e-06
-4.20561e-06
-4.20561e-06
-4.2056e-06
-4.2056e-06
-4.2056e-06
-4.2056e-06
-4.2056e-06
-4.2056e-06
-4.2056e-06
-4.2056e-06
-4.2056e-06
-4.2056e-06
-4.2056e-06
-4.2056e-06
-4.2056e-06
-4.2056e-06
-4.2056e-06
-4.2056e-06
-4.2056e-06
-4.2056e-06
-4.2056e-06
-4.2056e-06
-4.2056e-06
-4.2056e-06
-4.2056e-06
-4.2056e-06
-4.2056e-06
-4.2056e-06
-4.20561e-06
-4.2056e-06
-4.2056e-06
-4.2056e-06
-4.2056e-06
-4.2056e-06
-4.2056e-06
-4.2056e-06
-4.20561e-06
-4.20561e-06
-4.20561e-06
-4.20561e-06
-4.20561e-06
-4.20561e-06
-4.20561e-06
-4.20561e-06
-4.20561e-06
-4.20561e-06
-4.20561e-06
-4.20561e-06
-4.20561e-06
-4.20561e-06
-4.20561e-06
-4.20561e-06
-4.20561e-06
-4.20561e-06
-4.20561e-06
-4.20561e-06
-4.20561e-06
-4.20561e-06
-4.20561e-06
-4.20561e-06
-4.20561e-06
-4.20561e-06
-4.20561e-06
-4.20561e-06
-4.20561e-06
-4.20561e-06
-4.20561e-06
-4.20561e-06
-4.20561e-06
-4.20561e-06
-4.20561e-06
-4.20562e-06
-4.20562e-06
-4.20562e-06
-4.20562e-06
-4.20562e-06
-4.20562e-06
-4.20562e-06
-4.20562e-06
-4.20562e-06
-4.20562e-06
-4.20562e-06
-4.20562e-06
-4.20562e-06
-4.20562e-06
-4.20562e-06
-4.20562e-06
-4.20562e-06
-4.20562e-06
-4.20562e-06
-4.20562e-06
-4.20562e-06
-4.20562e-06
-4.20562e-06
-4.20562e-06
-4.20562e-06
-4.20562e-06
-4.20562e-06
-4.20562e-06
-4.20562e-06
-4.20562e-06
-4.20562e-06
-4.20561e-06
-4.20562e-06
-4.20561e-06
-4.20561e-06
-4.20561e-06
-4.20561e-06
-4.20561e-06
-4.20561e-06
-4.20561e-06
-4.20561e-06
-4.20561e-06
-4.20561e-06
-4.20561e-06
-4.20561e-06
-4.20561e-06
-4.20561e-06
-4.20561e-06
-4.20561e-06
-4.20561e-06
-4.20561e-06
-4.20561e-06
-4.20561e-06
-4.20561e-06
-4.20561e-06
-4.20561e-06
-4.20561e-06
-4.20561e-06
-4.20561e-06
-4.20561e-06
-4.20561e-06
-4.20561e-06
-4.20561e-06
-4.20561e-06
-4.20561e-06
-4.20561e-06
-4.20561e-06
-4.20561e-06
-4.20561e-06
-4.2056e-06
-4.2056e-06
-4.2056e-06
-4.2056e-06
-4.2056e-06
-4.2056e-06
-4.2056e-06
-4.2056e-06
-4.2056e-06
-4.2056e-06
-4.2056e-06
-4.2056e-06
-4.2056e-06
-4.2056e-06
-4.2056e-06
-4.2056e-06
-4.2056e-06
-4.2056e-06
-4.2056e-06
-4.2056e-06
-4.2056e-06
-4.2056e-06
-4.2056e-06
-4.20559e-06
-4.2056e-06
-4.20559e-06
-4.20559e-06
-4.20559e-06
-4.20559e-06
-4.20559e-06
-4.20559e-06
-4.20559e-06
-4.20559e-06
-4.20559e-06
-4.20559e-06
-4.20559e-06
-4.20559e-06
-4.20559e-06
-4.20559e-06
-4.20559e-06
-4.20559e-06
-4.20559e-06
-4.20559e-06
-4.20559e-06
-4.20559e-06
-4.20559e-06
-4.20559e-06
-4.20558e-06
-4.20558e-06
-4.20558e-06
-4.20558e-06
-4.20558e-06
-4.20558e-06
-4.20558e-06
-4.20558e-06
-4.20558e-06
-4.20558e-06
-4.20558e-06
-4.20558e-06
-4.20558e-06
-4.20558e-06
-4.20558e-06
-4.20558e-06
-4.20558e-06
-4.20558e-06
-4.20558e-06
-4.20558e-06
-4.20558e-06
-4.20558e-06
-4.20558e-06
-4.20558e-06
-4.20558e-06
-4.20558e-06
-4.20558e-06
-4.20558e-06
-4.20558e-06
-4.20558e-06
-4.20558e-06
-4.20558e-06
-4.20558e-06
-4.20558e-06
-4.20558e-06
-4.20558e-06
-4.20558e-06
-4.20558e-06
-4.20558e-06
-4.20557e-06
-4.20558e-06
-4.20557e-06
-4.20557e-06
-4.20557e-06
-4.20557e-06
-4.20557e-06
-4.20557e-06
-4.20557e-06
-4.20557e-06
-4.20557e-06
-4.20557e-06
-4.20557e-06
-4.20557e-06
-4.20557e-06
-4.20557e-06
-4.20557e-06
-4.20557e-06
-4.20557e-06
-4.20557e-06
-4.20557e-06
-4.20557e-06
-4.20557e-06
-4.20557e-06
-4.20557e-06
-4.20557e-06
-4.20557e-06
-4.20557e-06
-4.20557e-06
-4.20557e-06
-4.20557e-06
-4.20557e-06
-4.20557e-06
-4.20557e-06
-4.20557e-06
-4.20557e-06
-4.20557e-06
-4.20557e-06
-4.20557e-06
-4.20557e-06
-4.20557e-06
-4.20557e-06
-4.20557e-06
-4.20557e-06
-4.20557e-06
-4.20557e-06
-4.20557e-06
-4.20557e-06
-4.20557e-06
-4.20557e-06
-4.20557e-06
-4.20557e-06
-4.20557e-06
-4.20557e-06
-4.20556e-06
-4.20556e-06
-4.20556e-06
-4.20556e-06
-4.20556e-06
-4.20556e-06
-4.20556e-06
-4.20556e-06
-4.20556e-06
-4.20556e-06
-4.20556e-06
-4.20556e-06
-4.20556e-06
-4.20556e-06
-4.20556e-06
-4.20556e-06
-4.20556e-06
-4.20555e-06
-4.20555e-06
-4.20555e-06
-4.20555e-06
-4.20555e-06
-4.20555e-06
-4.20555e-06
-4.20555e-06
-4.20555e-06
-4.20555e-06
-4.20555e-06
-4.20555e-06
-4.20555e-06
-4.20555e-06
-4.20555e-06
-4.20555e-06
-4.20555e-06
-4.20555e-06
-4.20555e-06
-4.20555e-06
-4.20555e-06
-4.20555e-06
-4.20555e-06
-4.20555e-06
-4.20555e-06
-4.20555e-06
-4.20555e-06
-4.20555e-06
-4.20555e-06
-4.20555e-06
-4.20555e-06
-4.20556e-06
-4.20556e-06
-4.20556e-06
-4.20556e-06
-4.20556e-06
-4.20556e-06
-4.20557e-06
-4.20557e-06
-4.20557e-06
-4.20557e-06
-4.20558e-06
-4.20558e-06
-4.20559e-06
-4.20559e-06
-4.2056e-06
-4.2056e-06
-4.20561e-06
-4.20561e-06
-4.20562e-06
-4.20563e-06
-4.20564e-06
-4.20564e-06
-4.20565e-06
-4.20566e-06
-4.20567e-06
-4.20568e-06
-4.2057e-06
-4.20571e-06
-4.20573e-06
-4.20574e-06
-4.20576e-06
-4.20577e-06
-4.20579e-06
-4.20581e-06
-4.20584e-06
-4.20586e-06
-4.20588e-06
-4.20591e-06
-4.20594e-06
-4.20597e-06
-4.206e-06
-4.20604e-06
-4.20607e-06
-4.20611e-06
-4.20616e-06
-4.2062e-06
-4.20625e-06
-4.2063e-06
-4.20636e-06
-4.20641e-06
-4.20648e-06
-4.20654e-06
-4.20662e-06
-4.20669e-06
-4.20677e-06
-4.20686e-06
-4.20695e-06
-4.20705e-06
-4.20715e-06
-4.20726e-06
-4.20738e-06
-4.2075e-06
-4.20764e-06
-4.20778e-06
-4.20792e-06
-4.20808e-06
-4.20825e-06
-4.20843e-06
-4.20862e-06
-4.20882e-06
-4.20903e-06
-4.20926e-06
-4.2095e-06
-4.20976e-06
-4.21003e-06
-4.21031e-06
-4.21062e-06
-4.21094e-06
-4.21128e-06
-4.21163e-06
-4.21201e-06
-4.21242e-06
-4.21284e-06
-4.21329e-06
-4.21377e-06
-4.21427e-06
-4.2148e-06
-4.21535e-06
-4.21594e-06
-4.21657e-06
-4.21722e-06
-4.21792e-06
-4.21865e-06
-4.21942e-06
-4.22023e-06
-4.22109e-06
-4.22199e-06
-4.22294e-06
-4.22394e-06
-4.22499e-06
-4.2261e-06
-4.22726e-06
-4.22848e-06
-4.22977e-06
-4.23112e-06
-4.23254e-06
-4.23403e-06
-4.23559e-06
-4.23723e-06
-4.23896e-06
-4.24076e-06
-4.24266e-06
-4.24465e-06
-4.24673e-06
-4.24891e-06
-4.2512e-06
-4.25359e-06
-4.2561e-06
-4.25872e-06
-4.26146e-06
-4.26433e-06
-4.26733e-06
-4.27047e-06
-4.27374e-06
-4.27717e-06
-4.28074e-06
-4.28447e-06
-4.28837e-06
-4.29243e-06
-4.29667e-06
-4.3011e-06
-4.30571e-06
-4.31051e-06
-4.31552e-06
-4.32073e-06
-4.32616e-06
-4.33182e-06
-4.3377e-06
-4.34382e-06
-4.35018e-06
-4.3568e-06
-4.36368e-06
-4.37083e-06
-4.37826e-06
-4.38598e-06
-4.39399e-06
-4.4023e-06
-4.41093e-06
-4.41989e-06
-4.42917e-06
-4.4388e-06
-4.44877e-06
-4.45911e-06
-4.46982e-06
-4.48092e-06
-4.4924e-06
-4.50429e-06
-4.51659e-06
-4.52932e-06
-4.54249e-06
-4.5561e-06
-4.57017e-06
-4.58471e-06
-4.59973e-06
-4.61524e-06
-4.63126e-06
-4.6478e-06
-4.66487e-06
-4.68248e-06
-4.70064e-06
-4.71937e-06
-4.73869e-06
-4.7586e-06
-4.77911e-06
-4.80024e-06
-4.82201e-06
-4.84442e-06
-4.86749e-06
-4.89124e-06
-4.91567e-06
-4.9408e-06
-4.96665e-06
-4.99322e-06
-5.02054e-06
-5.04862e-06
-5.07747e-06
-5.1071e-06
-5.13754e-06
-5.16879e-06
-5.20088e-06
-5.23381e-06
-5.2676e-06
-5.30226e-06
-5.33781e-06
-5.37427e-06
-5.41165e-06
-5.44997e-06
-5.48924e-06
-5.52948e-06
-5.5707e-06
-5.61291e-06
-5.65615e-06
-5.70041e-06
-5.74573e-06
-5.7921e-06
-5.83956e-06
-5.88811e-06
-5.93777e-06
-5.98857e-06
-6.04051e-06
-6.09361e-06
-6.14789e-06
-6.20337e-06
-6.26007e-06
-6.318e-06
-6.37718e-06
-6.43762e-06
-6.49936e-06
-6.5624e-06
-6.62676e-06
-6.69247e-06
-6.75953e-06
-6.82798e-06
-6.89783e-06
-6.96909e-06
-7.0418e-06
-7.11598e-06
-7.19163e-06
-7.26878e-06
-7.34746e-06
-7.42769e-06
-7.50949e-06
-7.59288e-06
-7.67789e-06
-7.76454e-06
-7.85285e-06
-7.94286e-06
-8.03458e-06
-8.12805e-06
-8.22328e-06
-8.32032e-06
-8.41918e-06
-8.51991e-06
-8.62251e-06
-8.72704e-06
-8.83353e-06
-8.942e-06
-9.05249e-06
-9.16503e-06
-9.27966e-06
-9.39642e-06
-9.51534e-06
-9.63645e-06
-9.7598e-06
-9.88541e-06
-1.00133e-05
-1.01436e-05
-1.02762e-05
-1.04112e-05
-1.05487e-05
-1.06882e-05
-1.08305e-05
-1.09763e-05
-1.11253e-05
-1.12772e-05
-1.1432e-05
-1.15897e-05
-1.17503e-05
-1.19139e-05
-1.20806e-05
-1.22503e-05
-1.24233e-05
-1.25996e-05
-1.27792e-05
-1.29621e-05
-1.31484e-05
-1.33382e-05
-1.35313e-05
-1.37279e-05
-1.39279e-05
-1.41312e-05
-1.43377e-05
-1.45474e-05
-1.47601e-05
-1.49756e-05
-1.51935e-05
-1.54137e-05
-1.56355e-05
-1.58585e-05
-1.60821e-05
-1.63053e-05
-1.65274e-05
-1.6747e-05
-1.69629e-05
-1.71733e-05
-1.73763e-05
-1.75695e-05
-1.77503e-05
-1.79155e-05
-1.80614e-05
-1.81839e-05
-1.82781e-05
-1.8339e-05
)
;

boundaryField
{
    fixedWall
    {
        type            calculated;
        value           uniform 0;
    }
    outlet
    {
        type            calculated;
        value           uniform -1.83606e-05;
    }
    defaultFaces
    {
        type            empty;
    }
}


// ************************************************************************* //
