/*--------------------------------*- C++ -*----------------------------------*\
| =========                 |                                                 |
| \\      /  F ield         | OpenFOAM: The Open Source CFD Toolbox           |
|  \\    /   O peration     | Version:  2406                                  |
|   \\  /    A nd           | Website:  www.openfoam.com                      |
|    \\/     M anipulation  |                                                 |
\*---------------------------------------------------------------------------*/
FoamFile
{
    version     2.0;
    format      ascii;
    arch        "LSB;label=32;scalar=64";
    class       volScalarField;
    location    "14";
    object      Qdot;
}
// * * * * * * * * * * * * * * * * * * * * * * * * * * * * * * * * * * * * * //

dimensions      [1 -1 -3 0 0 0 0];

internalField   nonuniform List<scalar> 
1000
(
-6.70752e-19
-4.98526e-14
-1.23195e-16
-8.93106e-16
3.80442e-09
1.14133e-08
3.28679e-08
1.16565e-07
2.98024e-07
7.43412e-07
1.67083e-06
3.48175e-06
6.7916e-06
1.25008e-05
2.18879e-05
3.66408e-05
5.89418e-05
9.15079e-05
0.000137619
0.000201097
0.000286308
0.000398092
0.0005417
0.00072269
0.000946821
0.00121992
0.00154772
0.00193576
0.00238922
0.00291279
0.00351052
0.00418576
0.00494101
0.0057779
0.00669707
0.00769821
0.00878
0.00994014
0.0111754
0.0124815
0.0138535
0.0152858
0.0167717
0.0183044
0.0198763
0.0214797
0.0231065
0.0247486
0.0263976
0.0280455
0.0296843
0.0313063
0.0329042
0.0344709
0.036
0.0374854
0.0389218
0.0403042
0.0416283
0.0428905
0.0440877
0.0452173
0.0462776
0.047267
0.0481847
0.0490306
0.0498046
0.0505073
0.0511398
0.0517034
0.0521997
0.0526306
0.0529984
0.0533053
0.053554
0.0537472
0.0538877
0.0539782
0.0540218
0.0540214
0.05398
0.0539004
0.0537856
0.0536384
0.0534616
0.0532579
0.0530298
0.0527799
0.0525106
0.0522241
0.0519227
0.0516085
0.0512833
0.050949
0.0506074
0.05026
0.0499084
0.049554
0.049198
0.0488416
0.0484859
0.0481319
0.0477806
0.0474327
0.0470889
0.04675
0.0464166
0.0460891
0.045768
0.0454537
0.0451466
0.0448469
0.044555
0.0442709
0.0439949
0.0437271
0.0434675
0.0432163
0.0429735
0.042739
0.0425128
0.0422949
0.0420852
0.0418837
0.0416903
0.0415048
0.0413271
0.0411571
0.0409946
0.0408396
0.0406917
0.040551
0.0404172
0.0402901
0.0401696
0.0400554
0.0399475
0.0398457
0.0397497
0.0396594
0.0395746
0.0394952
0.0394209
0.0393516
0.0392871
0.0392273
0.039172
0.0391211
0.0390743
0.0390315
0.0389927
0.0389575
0.038926
0.0388978
0.038873
0.0388514
0.0388328
0.0388171
0.0388043
0.0387941
0.0387864
0.0387813
0.0387785
0.0387779
0.0387795
0.0387832
0.0387888
0.0387962
0.0388055
0.0388164
0.038829
0.0388432
0.0388588
0.0388758
0.0388941
0.0389137
0.0389345
0.0389565
0.0389795
0.0390036
0.0390287
0.0390547
0.0390816
0.0391092
0.0391377
0.0391669
0.0391969
0.0392276
0.0392589
0.0392908
0.0393232
0.0393561
0.0393896
0.0394236
0.0394581
0.0394931
0.0395284
0.0395641
0.0396003
0.0396367
0.0396734
0.0397103
0.0397477
0.0397854
0.0398231
0.0398611
0.0398995
0.0399381
0.0399769
0.0400159
0.0400551
0.0400944
0.0401339
0.0401736
0.0402133
0.0402533
0.0402933
0.0403335
0.0403739
0.0404143
0.0404548
0.0404953
0.0405361
0.0405767
0.0406177
0.0406585
0.0406995
0.0407407
0.0407819
0.0408232
0.0408645
0.0409059
0.0409474
0.0409889
0.0410305
0.041072
0.0411135
0.0411553
0.0411971
0.0412389
0.0412808
0.0413227
0.0413647
0.0414067
0.0414488
0.041491
0.0415331
0.0415753
0.0416176
0.0416599
0.0417023
0.0417447
0.0417871
0.0418296
0.0418721
0.0419147
0.0419573
0.0419999
0.0420426
0.0420854
0.0421282
0.0421711
0.0422138
0.0422567
0.0422997
0.0423427
0.0423857
0.0424288
0.042472
0.0425152
0.0425584
0.0426017
0.042645
0.0426884
0.0427319
0.0427754
0.0428187
0.0428623
0.042906
0.0429497
0.0429934
0.0430372
0.043081
0.0431249
0.0431688
0.0432128
0.0432569
0.043301
0.0433451
0.0433893
0.0434335
0.0434778
0.0435222
0.0435666
0.0436111
0.0436556
0.0437002
0.0437449
0.0437896
0.0438342
0.043879
0.0439239
0.0439689
0.0440137
0.0440588
0.0441039
0.0441491
0.0441943
0.0442396
0.044285
0.0443304
0.0443758
0.0444214
0.044467
0.0445126
0.0445583
0.0446041
0.0446499
0.0446959
0.0447418
0.0447879
0.044834
0.0448802
0.0449264
0.0449727
0.045019
0.0450655
0.045112
0.0451585
0.0452052
0.0452519
0.0452987
0.0453455
0.0453924
0.0454394
0.0454864
0.0455335
0.0455807
0.045628
0.0456753
0.0457227
0.0457701
0.0458177
0.0458653
0.045913
0.0459607
0.0460086
0.0460565
0.0461044
0.0461525
0.0462006
0.0462488
0.0462971
0.0463454
0.0463938
0.0464423
0.0464909
0.0465396
0.0465883
0.046637
0.0466859
0.0467348
0.0467839
0.046833
0.0468822
0.0469314
0.0469808
0.0470302
0.0470797
0.0471291
0.0471788
0.0472286
0.0472784
0.0473283
0.0473783
0.0474284
0.0474783
0.0475286
0.0475789
0.0476292
0.0476797
0.0477302
0.0477809
0.0478316
0.0478823
0.0479332
0.0479842
0.048035
0.0480861
0.0481373
0.0481886
0.0482399
0.0482914
0.0483429
0.0483945
0.0484461
0.0484979
0.0485497
0.0486017
0.0486537
0.0487058
0.048758
0.0488103
0.0488626
0.048915
0.0489676
0.0490202
0.0490729
0.0491256
0.0491785
0.0492314
0.0492845
0.0493376
0.0493908
0.0494441
0.0494975
0.049551
0.0496046
0.049658
0.0497118
0.0497656
0.0498195
0.0498735
0.0499276
0.0499817
0.050036
0.0500903
0.0501448
0.0501993
0.0502539
0.0503086
0.0503634
0.0504183
0.0504732
0.0505283
0.0505835
0.0506387
0.0506941
0.0507493
0.0508048
0.0508604
0.0509161
0.0509719
0.0510278
0.0510837
0.0511398
0.0511959
0.0512522
0.0513085
0.0513649
0.0514214
0.0514781
0.0515348
0.0515916
0.0516484
0.0517054
0.0517625
0.0518197
0.051877
0.0519343
0.0519918
0.0520493
0.052107
0.0521647
0.0522226
0.0522805
0.0523385
0.0523967
0.0524549
0.0525132
0.0525716
0.0526302
0.0526888
0.0527475
0.0528063
0.0528652
0.0529242
0.0529833
0.0530425
0.0531018
0.0531612
0.0532207
0.0532803
0.0533401
0.0533999
0.0534598
0.0535198
0.0535799
0.0536401
0.0537004
0.0537608
0.0538214
0.053882
0.0539427
0.0540035
0.0540644
0.0541255
0.0541866
0.0542478
0.0543091
0.0543706
0.0544321
0.0544938
0.0545555
0.0546174
0.0546794
0.0547415
0.0548036
0.0548659
0.0549283
0.0549908
0.0550534
0.0551162
0.055179
0.0552419
0.0553049
0.0553681
0.0554313
0.0554946
0.0555581
0.0556217
0.0556853
0.0557491
0.0558131
0.0558771
0.0559412
0.0560055
0.0560698
0.0561343
0.0561989
0.0562636
0.0563282
0.0563931
0.0564581
0.0565233
0.0565883
0.0566537
0.0567192
0.0567847
0.0568504
0.0569163
0.0569822
0.0570482
0.0571144
0.0571806
0.057247
0.0573135
0.0573801
0.0574468
0.0575136
0.0575805
0.0576476
0.0577147
0.057782
0.0578495
0.057917
0.0579846
0.0580524
0.0581203
0.0581883
0.0582564
0.0583246
0.058393
0.0584615
0.0585301
0.0585988
0.0586676
0.0587366
0.0588057
0.0588749
0.0589442
0.0590136
0.0590832
0.0591529
0.0592227
0.0592926
0.0593627
0.0594329
0.0595032
0.0595736
0.0596442
0.0597149
0.0597857
0.0598566
0.0599277
0.0599989
0.0600702
0.0601417
0.0602132
0.0602849
0.0603568
0.0604287
0.0605008
0.060573
0.0606454
0.0607179
0.0607905
0.0608632
0.0609361
0.0610091
0.0610822
0.0611555
0.0612289
0.0613024
0.0613761
0.0614499
0.0615238
0.0615979
0.0616721
0.0617464
0.0618209
0.0618955
0.0619702
0.0620451
0.0621201
0.0621953
0.0622706
0.062346
0.0624216
0.0624973
0.0625731
0.0626491
0.0627252
0.0628014
0.0628778
0.0629544
0.0630311
0.0631079
0.0631848
0.0632619
0.0633392
0.0634165
0.0634941
0.0635717
0.0636496
0.0637275
0.0638056
0.0638838
0.0639622
0.0640408
0.0641194
0.0641982
0.0642772
0.0643563
0.0644356
0.064515
0.0645945
0.0646742
0.0647541
0.0648341
0.0649142
0.0649945
0.0650749
0.0651555
0.0652363
0.0653172
0.0653982
0.0654794
0.0655607
0.0656422
0.0657239
0.0658056
0.0658876
0.0659697
0.0660519
0.0661344
0.0662169
0.0662996
0.0663825
0.0664655
0.0665487
0.0666321
0.0667156
0.0667992
0.0668831
0.0669669
0.0670507
0.0671349
0.0672193
0.0673039
0.0673886
0.0674735
0.0675585
0.0676437
0.0677291
0.0678146
0.0679003
0.0679861
0.0680721
0.0681583
0.0682446
0.0683311
0.0684178
0.0685046
0.0685916
0.0686786
0.0687655
0.0688529
0.0689405
0.0690283
0.0691163
0.0692043
0.0692926
0.069381
0.0694696
0.0695584
0.0696473
0.0697364
0.0698257
0.0699151
0.0700047
0.0700945
0.0701844
0.0702745
0.0703648
0.0704553
0.0705459
0.0706367
0.0707277
0.0708188
0.0709101
0.0710016
0.0710933
0.0711851
0.0712771
0.0713693
0.0714616
0.0715542
0.0716469
0.0717398
0.0718328
0.0719261
0.0720195
0.0721131
0.0722068
0.0723008
0.0723949
0.0724892
0.0725837
0.0726783
0.0727731
0.0728681
0.0729633
0.0730587
0.0731542
0.07325
0.0733459
0.0734419
0.0735382
0.0736346
0.0737312
0.073828
0.073925
0.0740221
0.0741195
0.074217
0.0743147
0.0744125
0.0745106
0.0746088
0.0747073
0.0748059
0.0749047
0.0750037
0.0751028
0.0752022
0.0753018
0.0754015
0.0755015
0.0756017
0.075702
0.0758026
0.0759034
0.0760044
0.0761057
0.0762071
0.0763088
0.0764108
0.076513
0.0766155
0.0767182
0.0768213
0.0769246
0.0770283
0.0771322
0.0772365
0.0773412
0.0774462
0.0775517
0.0776575
0.0777638
0.0778706
0.0779779
0.0780857
0.078194
0.078303
0.0784126
0.0785229
0.0786339
0.0787457
0.0788583
0.0789718
0.0790862
0.0792016
0.0793182
0.0794358
0.0795547
0.079675
0.0797966
0.0799198
0.0800446
0.0801711
0.0802995
0.0804298
0.0805623
0.080697
0.0808341
0.0809738
0.0811163
0.0812617
0.0814102
0.0815621
0.0817175
0.0818768
0.08204
0.0822076
0.0823797
0.0825568
0.0827389
0.0829266
0.0831202
0.0833199
0.0835262
0.0837394
0.0839601
0.0841886
0.0844253
0.0846709
0.0849257
0.0851903
0.0854652
0.0857511
0.0860485
0.0863581
0.0866804
0.0870163
0.0873664
0.0877314
0.0881122
0.0885095
0.0889241
0.0893569
0.0898088
0.0902807
0.0907736
0.0912884
0.0918262
0.0923879
0.0929747
0.0935876
0.0942277
0.0948963
0.0955944
0.0963233
0.0970842
0.0978782
0.0987067
0.099571
0.100472
0.101412
0.10239
0.10341
0.104472
0.105577
0.106726
0.107921
0.109162
0.110451
0.111789
0.113177
0.114615
0.116105
0.117646
0.11924
0.120886
0.122585
0.124336
0.12614
0.127996
0.129902
0.131859
0.133864
0.135915
0.138011
0.140149
0.142326
0.144538
0.146781
0.14905
0.151341
0.153647
0.155962
0.158279
0.160589
0.162884
0.165155
0.167391
0.169582
0.171714
0.173777
0.175755
0.177636
0.179404
0.181044
0.182539
0.183873
0.185028
0.185987
0.186732
0.187246
0.187511
0.187509
0.187224
0.186639
0.185741
0.184514
0.182946
0.181028
0.17875
0.176106
0.173093
0.169711
0.165961
0.16185
0.157388
0.152586
0.147463
0.142038
0.136336
0.130385
0.124217
0.117866
0.111369
0.104767
0.0981013
0.0914155
0.0847536
0.0781598
0.0716774
0.0653487
0.0592136
0.0533095
0.0476701
0.0423249
0.0372991
0.0326126
0.0282802
0.0243448
0.0207392
0.0174959
0.0146086
0.0120657
0.00985151
0.00794623
0.00632716
0.00496936
0.00384644
0.00293141
0.0021974
0.00161836
0.00116962
0.000828419
0.000574195
0.000388854
0.000256853
0.000165168
0.000103184
6.24799e-05
3.65775e-05
2.06463e-05
1.12006e-05
5.82106e-06
2.88763e-06
1.36023e-06
6.06628e-07
2.54258e-07
9.98429e-08
3.67112e-08
1.20214e-08
3.37072e-09
9.51005e-10
3.44448e-10
-3.23523e-10
9.9659e-14
-3.64721e-18
-4.75116e-19
1.61761e-10
0
-3.4935e-21
-6.66697e-12
)
;

boundaryField
{
    fixedWall
    {
        type            calculated;
        value           uniform 0;
    }
    outlet
    {
        type            calculated;
        value           uniform 0;
    }
    defaultFaces
    {
        type            empty;
    }
}


// ************************************************************************* //
