/*--------------------------------*- C++ -*----------------------------------*\
| =========                 |                                                 |
| \\      /  F ield         | OpenFOAM: The Open Source CFD Toolbox           |
|  \\    /   O peration     | Version:  2406                                  |
|   \\  /    A nd           | Website:  www.openfoam.com                      |
|    \\/     M anipulation  |                                                 |
\*---------------------------------------------------------------------------*/
FoamFile
{
    version     2.0;
    format      ascii;
    arch        "LSB;label=32;scalar=64";
    class       volScalarField;
    location    "14";
    object      T;
}
// * * * * * * * * * * * * * * * * * * * * * * * * * * * * * * * * * * * * * //

dimensions      [0 0 0 1 0 0 0];

internalField   nonuniform List<scalar> 
1000
(
303.802
323.944
342.782
360.5
377.242
393.124
408.237
422.66
436.455
449.679
462.378
474.592
486.358
497.706
508.664
519.257
529.506
539.432
549.051
558.381
567.435
576.228
584.771
593.076
601.153
609.012
616.662
624.111
631.366
638.436
645.326
652.043
658.593
664.981
671.213
677.293
683.226
689.018
694.671
700.19
705.579
710.841
715.98
720.999
725.901
730.689
735.367
739.936
744.401
748.762
753.023
757.186
761.254
765.228
769.111
772.905
776.611
780.233
783.771
787.228
790.605
793.904
797.127
800.276
803.351
806.355
809.289
812.155
814.954
817.687
820.356
822.962
825.506
827.99
830.415
832.783
835.093
837.349
839.55
841.698
843.794
845.838
847.834
849.78
851.678
853.53
855.335
857.096
858.813
860.487
862.118
863.709
865.259
866.77
868.242
869.676
871.073
872.434
873.76
875.051
876.308
877.532
878.724
879.884
881.012
882.111
883.18
884.22
885.232
886.216
887.173
888.103
889.008
889.888
890.743
891.574
892.382
893.166
893.929
894.669
895.388
896.087
896.765
897.423
898.062
898.682
899.284
899.868
900.434
900.984
901.517
902.033
902.534
903.02
903.491
903.947
904.389
904.817
905.232
905.634
906.023
906.4
906.764
907.117
907.459
907.789
908.109
908.418
908.717
909.007
909.286
909.557
909.818
910.07
910.314
910.55
910.778
910.997
911.21
911.415
911.612
911.803
911.988
912.165
912.337
912.502
912.661
912.815
912.963
913.106
913.243
913.376
913.503
913.626
913.745
913.859
913.969
914.074
914.176
914.274
914.367
914.458
914.544
914.628
914.708
914.785
914.86
914.931
914.999
915.065
915.128
915.188
915.247
915.302
915.356
915.407
915.457
915.504
915.549
915.592
915.634
915.674
915.712
915.749
915.784
915.817
915.849
915.88
915.909
915.937
915.964
915.99
916.014
916.038
916.06
916.082
916.102
916.122
916.14
916.158
916.175
916.191
916.207
916.222
916.236
916.249
916.262
916.274
916.286
916.297
916.307
916.317
916.327
916.336
916.344
916.352
916.36
916.367
916.374
916.381
916.387
916.393
916.399
916.405
916.41
916.415
916.419
916.423
916.428
916.432
916.435
916.439
916.442
916.445
916.448
916.451
916.454
916.456
916.458
916.461
916.463
916.465
916.467
916.468
916.47
916.472
916.473
916.474
916.476
916.477
916.478
916.479
916.48
916.481
916.482
916.483
916.484
916.485
916.485
916.486
916.487
916.487
916.488
916.488
916.489
916.489
916.49
916.49
916.49
916.491
916.491
916.491
916.492
916.492
916.492
916.492
916.493
916.493
916.493
916.493
916.494
916.494
916.494
916.494
916.494
916.495
916.495
916.495
916.495
916.495
916.495
916.496
916.496
916.496
916.496
916.496
916.496
916.496
916.497
916.497
916.497
916.497
916.497
916.497
916.497
916.498
916.498
916.498
916.498
916.498
916.498
916.498
916.499
916.499
916.499
916.499
916.499
916.499
916.5
916.5
916.5
916.5
916.5
916.5
916.5
916.501
916.501
916.501
916.501
916.501
916.501
916.502
916.502
916.502
916.502
916.502
916.502
916.503
916.503
916.503
916.503
916.503
916.503
916.504
916.504
916.504
916.504
916.504
916.504
916.505
916.505
916.505
916.505
916.505
916.505
916.506
916.506
916.506
916.506
916.506
916.506
916.507
916.507
916.507
916.507
916.507
916.507
916.507
916.508
916.508
916.508
916.508
916.508
916.508
916.508
916.509
916.509
916.509
916.509
916.509
916.509
916.509
916.509
916.51
916.51
916.51
916.51
916.51
916.51
916.51
916.51
916.51
916.511
916.511
916.511
916.511
916.511
916.511
916.511
916.511
916.511
916.511
916.511
916.512
916.512
916.512
916.512
916.512
916.512
916.512
916.512
916.512
916.512
916.512
916.512
916.512
916.513
916.513
916.513
916.513
916.513
916.513
916.513
916.513
916.513
916.513
916.513
916.513
916.513
916.513
916.513
916.513
916.513
916.514
916.514
916.514
916.514
916.514
916.514
916.514
916.514
916.514
916.514
916.514
916.514
916.514
916.514
916.514
916.514
916.514
916.514
916.514
916.514
916.514
916.514
916.514
916.514
916.515
916.515
916.515
916.515
916.515
916.515
916.515
916.515
916.515
916.515
916.515
916.515
916.515
916.515
916.515
916.515
916.515
916.515
916.515
916.515
916.515
916.515
916.515
916.515
916.515
916.515
916.515
916.515
916.515
916.515
916.515
916.515
916.515
916.515
916.515
916.516
916.516
916.516
916.516
916.516
916.516
916.516
916.516
916.516
916.516
916.516
916.516
916.516
916.516
916.516
916.516
916.516
916.516
916.516
916.516
916.516
916.516
916.516
916.516
916.516
916.516
916.516
916.516
916.516
916.516
916.516
916.516
916.516
916.516
916.516
916.516
916.516
916.516
916.517
916.517
916.517
916.517
916.517
916.517
916.517
916.517
916.517
916.517
916.517
916.517
916.517
916.517
916.517
916.517
916.517
916.517
916.517
916.517
916.517
916.517
916.517
916.517
916.517
916.517
916.517
916.517
916.517
916.517
916.517
916.517
916.517
916.517
916.517
916.517
916.517
916.518
916.518
916.518
916.518
916.518
916.518
916.518
916.518
916.518
916.518
916.518
916.518
916.518
916.518
916.518
916.518
916.518
916.518
916.518
916.518
916.518
916.518
916.518
916.518
916.518
916.518
916.518
916.518
916.518
916.518
916.518
916.518
916.518
916.518
916.518
916.518
916.518
916.518
916.518
916.518
916.518
916.518
916.518
916.518
916.518
916.518
916.518
916.518
916.518
916.518
916.518
916.518
916.518
916.518
916.518
916.518
916.518
916.518
916.518
916.518
916.518
916.518
916.518
916.518
916.518
916.518
916.518
916.518
916.518
916.518
916.518
916.518
916.518
916.518
916.518
916.518
916.518
916.518
916.518
916.518
916.518
916.518
916.518
916.518
916.518
916.518
916.518
916.518
916.518
916.518
916.518
916.518
916.518
916.518
916.518
916.519
916.519
916.519
916.519
916.519
916.519
916.519
916.519
916.519
916.519
916.519
916.519
916.519
916.519
916.519
916.519
916.519
916.519
916.519
916.519
916.518
916.518
916.518
916.518
916.518
916.518
916.518
916.518
916.518
916.518
916.518
916.518
916.518
916.518
916.518
916.517
916.517
916.517
916.517
916.517
916.517
916.516
916.516
916.516
916.516
916.515
916.515
916.515
916.514
916.514
916.513
916.513
916.512
916.512
916.511
916.51
916.51
916.509
916.508
916.507
916.506
916.505
916.504
916.503
916.502
916.501
916.499
916.498
916.496
916.494
916.493
916.491
916.489
916.486
916.484
916.481
916.479
916.476
916.473
916.47
916.466
916.462
916.459
916.454
916.45
916.445
916.44
916.435
916.429
916.423
916.417
916.41
916.403
916.395
916.387
916.378
916.369
916.36
916.349
916.338
916.327
916.315
916.302
916.288
916.274
916.258
916.242
916.225
916.207
916.188
916.168
916.147
916.124
916.101
916.076
916.049
916.022
915.992
915.961
915.929
915.895
915.859
915.821
915.781
915.739
915.695
915.648
915.6
915.548
915.495
915.438
915.379
915.316
915.251
915.183
915.111
915.036
914.957
914.874
914.788
914.697
914.603
914.503
914.4
914.291
914.178
914.06
913.936
913.807
913.672
913.532
913.385
913.232
913.072
912.906
912.732
912.552
912.364
912.168
911.964
911.752
911.531
911.302
911.063
910.815
910.558
910.29
910.013
909.724
909.425
909.115
908.793
908.459
908.113
907.755
907.384
906.999
906.601
906.189
905.763
905.322
904.866
904.394
903.907
903.403
902.883
902.345
901.791
901.218
900.627
900.017
899.388
898.74
898.071
897.382
896.672
895.94
895.187
894.411
893.613
892.791
891.945
891.074
890.179
889.259
888.312
887.34
886.34
885.312
884.257
883.173
882.059
880.916
879.742
878.538
877.301
876.032
874.73
873.395
872.025
870.62
869.18
867.702
866.188
864.635
863.044
861.413
859.742
858.029
856.274
854.476
852.633
850.746
848.813
846.832
844.803
842.725
840.596
838.416
836.183
833.895
831.552
829.152
826.694
824.176
821.597
818.955
816.248
813.475
810.634
807.723
804.74
801.683
798.551
795.34
792.049
788.675
785.216
781.67
778.033
774.303
770.477
766.553
762.527
758.396
754.157
749.806
745.34
740.756
736.049
731.215
726.252
721.154
715.917
710.541
705.062
699.384
693.548
687.551
681.386
675.048
668.533
661.835
654.949
647.87
640.593
633.111
625.421
617.517
609.394
601.048
592.474
583.669
574.628
565.349
555.83
546.069
536.065
525.819
515.332
504.607
493.648
482.461
471.054
459.437
447.622
435.624
423.459
411.148
398.716
386.187
373.593
360.969
348.352
335.786
323.32
311.005
298.901
)
;

boundaryField
{
    fixedWall
    {
        type            fixedValue;
        value           uniform 293;
    }
    outlet
    {
        type            inletOutlet;
        inletValue      uniform 293;
        value           uniform 293;
    }
    defaultFaces
    {
        type            empty;
    }
}


// ************************************************************************* //
