/*--------------------------------*- C++ -*----------------------------------*\
| =========                 |                                                 |
| \\      /  F ield         | OpenFOAM: The Open Source CFD Toolbox           |
|  \\    /   O peration     | Version:  2406                                  |
|   \\  /    A nd           | Website:  www.openfoam.com                      |
|    \\/     M anipulation  |                                                 |
\*---------------------------------------------------------------------------*/
FoamFile
{
    version     2.0;
    format      ascii;
    arch        "LSB;label=32;scalar=64";
    class       volVectorField;
    location    "14";
    object      U;
}
// * * * * * * * * * * * * * * * * * * * * * * * * * * * * * * * * * * * * * //

dimensions      [0 1 -1 0 0 0 0];

internalField   nonuniform List<vector> 
1000
(
(-5.77283e-07 0 0)
(-2.79454e-06 0 0)
(-7.25079e-06 0 0)
(-1.34615e-05 0 0)
(-2.10565e-05 0 0)
(-2.98085e-05 0 0)
(-3.95573e-05 0 0)
(-5.0168e-05 0 0)
(-6.15281e-05 0 0)
(-7.35394e-05 0 0)
(-8.6122e-05 0 0)
(-9.92041e-05 0 0)
(-0.000112725 0 0)
(-0.000126631 0 0)
(-0.000140876 0 0)
(-0.000155418 0 0)
(-0.00017022 0 0)
(-0.00018525 0 0)
(-0.000200479 0 0)
(-0.000215879 0 0)
(-0.000231426 0 0)
(-0.000247099 0 0)
(-0.000262877 0 0)
(-0.000278742 0 0)
(-0.000294678 0 0)
(-0.000310669 0 0)
(-0.0003267 0 0)
(-0.000342757 0 0)
(-0.00035883 0 0)
(-0.000374906 0 0)
(-0.000390974 0 0)
(-0.000407025 0 0)
(-0.000423049 0 0)
(-0.000439037 0 0)
(-0.000454983 0 0)
(-0.000470876 0 0)
(-0.000486711 0 0)
(-0.000502481 0 0)
(-0.000518179 0 0)
(-0.0005338 0 0)
(-0.000549338 0 0)
(-0.000564787 0 0)
(-0.000580144 0 0)
(-0.000595401 0 0)
(-0.000610557 0 0)
(-0.000625605 0 0)
(-0.000640544 0 0)
(-0.000655366 0 0)
(-0.000670073 0 0)
(-0.000684657 0 0)
(-0.000699117 0 0)
(-0.00071345 0 0)
(-0.000727654 0 0)
(-0.000741725 0 0)
(-0.000755662 0 0)
(-0.000769462 0 0)
(-0.000783123 0 0)
(-0.000796643 0 0)
(-0.000810021 0 0)
(-0.000823255 0 0)
(-0.000836343 0 0)
(-0.000849284 0 0)
(-0.000862077 0 0)
(-0.00087472 0 0)
(-0.000887214 0 0)
(-0.000899556 0 0)
(-0.000911746 0 0)
(-0.000923782 0 0)
(-0.000935666 0 0)
(-0.000947396 0 0)
(-0.000958971 0 0)
(-0.000970391 0 0)
(-0.000981657 0 0)
(-0.000992768 0 0)
(-0.00100372 0 0)
(-0.00101452 0 0)
(-0.00102517 0 0)
(-0.00103566 0 0)
(-0.001046 0 0)
(-0.00105618 0 0)
(-0.0010662 0 0)
(-0.00107608 0 0)
(-0.0010858 0 0)
(-0.00109537 0 0)
(-0.00110478 0 0)
(-0.00111405 0 0)
(-0.00112316 0 0)
(-0.00113212 0 0)
(-0.00114094 0 0)
(-0.0011496 0 0)
(-0.00115812 0 0)
(-0.00116649 0 0)
(-0.00117472 0 0)
(-0.0011828 0 0)
(-0.00119074 0 0)
(-0.00119853 0 0)
(-0.00120619 0 0)
(-0.0012137 0 0)
(-0.00122107 0 0)
(-0.00122831 0 0)
(-0.00123541 0 0)
(-0.00124238 0 0)
(-0.00124921 0 0)
(-0.00125591 0 0)
(-0.00126248 0 0)
(-0.00126892 0 0)
(-0.00127523 0 0)
(-0.00128141 0 0)
(-0.00128747 0 0)
(-0.0012934 0 0)
(-0.00129921 0 0)
(-0.0013049 0 0)
(-0.00131047 0 0)
(-0.00131592 0 0)
(-0.00132125 0 0)
(-0.00132647 0 0)
(-0.00133158 0 0)
(-0.00133657 0 0)
(-0.00134146 0 0)
(-0.00134623 0 0)
(-0.0013509 0 0)
(-0.00135546 0 0)
(-0.00135992 0 0)
(-0.00136427 0 0)
(-0.00136853 0 0)
(-0.00137268 0 0)
(-0.00137674 0 0)
(-0.0013807 0 0)
(-0.00138456 0 0)
(-0.00138833 0 0)
(-0.00139201 0 0)
(-0.0013956 0 0)
(-0.00139911 0 0)
(-0.00140252 0 0)
(-0.00140585 0 0)
(-0.0014091 0 0)
(-0.00141226 0 0)
(-0.00141534 0 0)
(-0.00141834 0 0)
(-0.00142127 0 0)
(-0.00142412 0 0)
(-0.00142689 0 0)
(-0.00142959 0 0)
(-0.00143222 0 0)
(-0.00143478 0 0)
(-0.00143726 0 0)
(-0.00143968 0 0)
(-0.00144204 0 0)
(-0.00144433 0 0)
(-0.00144655 0 0)
(-0.00144872 0 0)
(-0.00145082 0 0)
(-0.00145287 0 0)
(-0.00145485 0 0)
(-0.00145678 0 0)
(-0.00145865 0 0)
(-0.00146047 0 0)
(-0.00146223 0 0)
(-0.00146395 0 0)
(-0.00146561 0 0)
(-0.00146722 0 0)
(-0.00146879 0 0)
(-0.0014703 0 0)
(-0.00147177 0 0)
(-0.0014732 0 0)
(-0.00147458 0 0)
(-0.00147592 0 0)
(-0.00147722 0 0)
(-0.00147848 0 0)
(-0.0014797 0 0)
(-0.00148088 0 0)
(-0.00148203 0 0)
(-0.00148313 0 0)
(-0.0014842 0 0)
(-0.00148524 0 0)
(-0.00148624 0 0)
(-0.00148721 0 0)
(-0.00148814 0 0)
(-0.00148905 0 0)
(-0.00148992 0 0)
(-0.00149077 0 0)
(-0.00149159 0 0)
(-0.00149238 0 0)
(-0.00149315 0 0)
(-0.00149389 0 0)
(-0.00149461 0 0)
(-0.00149529 0 0)
(-0.00149595 0 0)
(-0.00149659 0 0)
(-0.00149721 0 0)
(-0.0014978 0 0)
(-0.00149838 0 0)
(-0.00149893 0 0)
(-0.00149946 0 0)
(-0.00149998 0 0)
(-0.00150047 0 0)
(-0.00150095 0 0)
(-0.00150141 0 0)
(-0.00150186 0 0)
(-0.00150229 0 0)
(-0.0015027 0 0)
(-0.0015031 0 0)
(-0.00150348 0 0)
(-0.00150385 0 0)
(-0.0015042 0 0)
(-0.00150454 0 0)
(-0.00150486 0 0)
(-0.00150518 0 0)
(-0.00150548 0 0)
(-0.00150577 0 0)
(-0.00150605 0 0)
(-0.00150632 0 0)
(-0.00150657 0 0)
(-0.00150682 0 0)
(-0.00150706 0 0)
(-0.00150729 0 0)
(-0.00150751 0 0)
(-0.00150772 0 0)
(-0.00150792 0 0)
(-0.00150812 0 0)
(-0.0015083 0 0)
(-0.00150848 0 0)
(-0.00150865 0 0)
(-0.00150881 0 0)
(-0.00150897 0 0)
(-0.00150912 0 0)
(-0.00150926 0 0)
(-0.0015094 0 0)
(-0.00150953 0 0)
(-0.00150966 0 0)
(-0.00150978 0 0)
(-0.00150989 0 0)
(-0.00151 0 0)
(-0.00151011 0 0)
(-0.00151021 0 0)
(-0.00151031 0 0)
(-0.0015104 0 0)
(-0.00151048 0 0)
(-0.00151057 0 0)
(-0.00151065 0 0)
(-0.00151072 0 0)
(-0.0015108 0 0)
(-0.00151087 0 0)
(-0.00151093 0 0)
(-0.001511 0 0)
(-0.00151106 0 0)
(-0.00151111 0 0)
(-0.00151117 0 0)
(-0.00151122 0 0)
(-0.00151127 0 0)
(-0.00151132 0 0)
(-0.00151136 0 0)
(-0.00151141 0 0)
(-0.00151145 0 0)
(-0.00151149 0 0)
(-0.00151152 0 0)
(-0.00151156 0 0)
(-0.00151159 0 0)
(-0.00151162 0 0)
(-0.00151165 0 0)
(-0.00151168 0 0)
(-0.00151171 0 0)
(-0.00151173 0 0)
(-0.00151176 0 0)
(-0.00151178 0 0)
(-0.0015118 0 0)
(-0.00151182 0 0)
(-0.00151184 0 0)
(-0.00151186 0 0)
(-0.00151188 0 0)
(-0.00151189 0 0)
(-0.00151191 0 0)
(-0.00151192 0 0)
(-0.00151194 0 0)
(-0.00151195 0 0)
(-0.00151196 0 0)
(-0.00151198 0 0)
(-0.00151199 0 0)
(-0.001512 0 0)
(-0.00151201 0 0)
(-0.00151201 0 0)
(-0.00151202 0 0)
(-0.00151203 0 0)
(-0.00151204 0 0)
(-0.00151204 0 0)
(-0.00151205 0 0)
(-0.00151206 0 0)
(-0.00151206 0 0)
(-0.00151207 0 0)
(-0.00151207 0 0)
(-0.00151208 0 0)
(-0.00151208 0 0)
(-0.00151209 0 0)
(-0.00151209 0 0)
(-0.00151209 0 0)
(-0.00151209 0 0)
(-0.0015121 0 0)
(-0.0015121 0 0)
(-0.0015121 0 0)
(-0.00151211 0 0)
(-0.00151211 0 0)
(-0.00151211 0 0)
(-0.00151211 0 0)
(-0.00151211 0 0)
(-0.00151211 0 0)
(-0.00151211 0 0)
(-0.00151212 0 0)
(-0.00151212 0 0)
(-0.00151212 0 0)
(-0.00151212 0 0)
(-0.00151212 0 0)
(-0.00151212 0 0)
(-0.00151212 0 0)
(-0.00151212 0 0)
(-0.00151212 0 0)
(-0.00151212 0 0)
(-0.00151212 0 0)
(-0.00151212 0 0)
(-0.00151212 0 0)
(-0.00151212 0 0)
(-0.00151212 0 0)
(-0.00151212 0 0)
(-0.00151212 0 0)
(-0.00151212 0 0)
(-0.00151212 0 0)
(-0.00151212 0 0)
(-0.00151212 0 0)
(-0.00151212 0 0)
(-0.00151212 0 0)
(-0.00151212 0 0)
(-0.00151212 0 0)
(-0.00151212 0 0)
(-0.00151212 0 0)
(-0.00151212 0 0)
(-0.00151212 0 0)
(-0.00151212 0 0)
(-0.00151211 0 0)
(-0.00151211 0 0)
(-0.00151211 0 0)
(-0.00151211 0 0)
(-0.00151211 0 0)
(-0.00151212 0 0)
(-0.00151211 0 0)
(-0.00151211 0 0)
(-0.00151211 0 0)
(-0.00151211 0 0)
(-0.00151211 0 0)
(-0.00151211 0 0)
(-0.00151211 0 0)
(-0.00151211 0 0)
(-0.00151211 0 0)
(-0.00151211 0 0)
(-0.00151211 0 0)
(-0.00151211 0 0)
(-0.00151211 0 0)
(-0.00151211 0 0)
(-0.00151211 0 0)
(-0.00151211 0 0)
(-0.00151211 0 0)
(-0.00151211 0 0)
(-0.00151211 0 0)
(-0.00151211 0 0)
(-0.00151211 0 0)
(-0.00151211 0 0)
(-0.00151211 0 0)
(-0.00151211 0 0)
(-0.00151211 0 0)
(-0.00151211 0 0)
(-0.00151211 0 0)
(-0.00151211 0 0)
(-0.00151211 0 0)
(-0.00151211 0 0)
(-0.00151211 0 0)
(-0.00151211 0 0)
(-0.00151211 0 0)
(-0.00151211 0 0)
(-0.00151211 0 0)
(-0.00151211 0 0)
(-0.00151211 0 0)
(-0.00151211 0 0)
(-0.00151211 0 0)
(-0.00151211 0 0)
(-0.00151211 0 0)
(-0.00151211 0 0)
(-0.00151211 0 0)
(-0.00151211 0 0)
(-0.00151211 0 0)
(-0.00151212 0 0)
(-0.00151212 0 0)
(-0.00151212 0 0)
(-0.00151212 0 0)
(-0.00151212 0 0)
(-0.00151212 0 0)
(-0.00151212 0 0)
(-0.00151212 0 0)
(-0.00151212 0 0)
(-0.00151212 0 0)
(-0.00151212 0 0)
(-0.00151212 0 0)
(-0.00151212 0 0)
(-0.00151212 0 0)
(-0.00151212 0 0)
(-0.00151212 0 0)
(-0.00151212 0 0)
(-0.00151212 0 0)
(-0.00151212 0 0)
(-0.00151212 0 0)
(-0.00151212 0 0)
(-0.00151212 0 0)
(-0.00151212 0 0)
(-0.00151212 0 0)
(-0.00151212 0 0)
(-0.00151212 0 0)
(-0.00151212 0 0)
(-0.00151212 0 0)
(-0.00151212 0 0)
(-0.00151212 0 0)
(-0.00151212 0 0)
(-0.00151212 0 0)
(-0.00151212 0 0)
(-0.00151212 0 0)
(-0.00151212 0 0)
(-0.00151212 0 0)
(-0.00151212 0 0)
(-0.00151212 0 0)
(-0.00151212 0 0)
(-0.00151212 0 0)
(-0.00151212 0 0)
(-0.00151213 0 0)
(-0.00151213 0 0)
(-0.00151213 0 0)
(-0.00151213 0 0)
(-0.00151213 0 0)
(-0.00151213 0 0)
(-0.00151213 0 0)
(-0.00151213 0 0)
(-0.00151213 0 0)
(-0.00151213 0 0)
(-0.00151213 0 0)
(-0.00151213 0 0)
(-0.00151213 0 0)
(-0.00151213 0 0)
(-0.00151213 0 0)
(-0.00151213 0 0)
(-0.00151213 0 0)
(-0.00151213 0 0)
(-0.00151213 0 0)
(-0.00151213 0 0)
(-0.00151213 0 0)
(-0.00151213 0 0)
(-0.00151213 0 0)
(-0.00151213 0 0)
(-0.00151213 0 0)
(-0.00151213 0 0)
(-0.00151213 0 0)
(-0.00151213 0 0)
(-0.00151213 0 0)
(-0.00151213 0 0)
(-0.00151213 0 0)
(-0.00151213 0 0)
(-0.00151213 0 0)
(-0.00151213 0 0)
(-0.00151213 0 0)
(-0.00151213 0 0)
(-0.00151213 0 0)
(-0.00151213 0 0)
(-0.00151213 0 0)
(-0.00151213 0 0)
(-0.00151213 0 0)
(-0.00151213 0 0)
(-0.00151213 0 0)
(-0.00151213 0 0)
(-0.00151213 0 0)
(-0.00151213 0 0)
(-0.00151213 0 0)
(-0.00151213 0 0)
(-0.00151213 0 0)
(-0.00151213 0 0)
(-0.00151213 0 0)
(-0.00151213 0 0)
(-0.00151213 0 0)
(-0.00151213 0 0)
(-0.00151213 0 0)
(-0.00151213 0 0)
(-0.00151213 0 0)
(-0.00151213 0 0)
(-0.00151213 0 0)
(-0.00151213 0 0)
(-0.00151213 0 0)
(-0.00151213 0 0)
(-0.00151213 0 0)
(-0.00151213 0 0)
(-0.00151213 0 0)
(-0.00151213 0 0)
(-0.00151213 0 0)
(-0.00151213 0 0)
(-0.00151213 0 0)
(-0.00151213 0 0)
(-0.00151213 0 0)
(-0.00151213 0 0)
(-0.00151213 0 0)
(-0.00151213 0 0)
(-0.00151213 0 0)
(-0.00151213 0 0)
(-0.00151213 0 0)
(-0.00151213 0 0)
(-0.00151213 0 0)
(-0.00151213 0 0)
(-0.00151213 0 0)
(-0.00151213 0 0)
(-0.00151213 0 0)
(-0.00151213 0 0)
(-0.00151213 0 0)
(-0.00151213 0 0)
(-0.00151213 0 0)
(-0.00151213 0 0)
(-0.00151213 0 0)
(-0.00151213 0 0)
(-0.00151213 0 0)
(-0.00151213 0 0)
(-0.00151213 0 0)
(-0.00151213 0 0)
(-0.00151213 0 0)
(-0.00151213 0 0)
(-0.00151213 0 0)
(-0.00151213 0 0)
(-0.00151213 0 0)
(-0.00151213 0 0)
(-0.00151213 0 0)
(-0.00151213 0 0)
(-0.00151213 0 0)
(-0.00151213 0 0)
(-0.00151213 0 0)
(-0.00151213 0 0)
(-0.00151213 0 0)
(-0.00151213 0 0)
(-0.00151212 0 0)
(-0.00151213 0 0)
(-0.00151213 0 0)
(-0.00151212 0 0)
(-0.00151213 0 0)
(-0.00151212 0 0)
(-0.00151213 0 0)
(-0.00151212 0 0)
(-0.00151213 0 0)
(-0.00151213 0 0)
(-0.00151212 0 0)
(-0.00151213 0 0)
(-0.00151212 0 0)
(-0.00151212 0 0)
(-0.00151213 0 0)
(-0.00151212 0 0)
(-0.00151213 0 0)
(-0.00151212 0 0)
(-0.00151212 0 0)
(-0.00151212 0 0)
(-0.00151212 0 0)
(-0.00151212 0 0)
(-0.00151212 0 0)
(-0.00151213 0 0)
(-0.00151212 0 0)
(-0.00151212 0 0)
(-0.00151212 0 0)
(-0.00151212 0 0)
(-0.00151212 0 0)
(-0.00151212 0 0)
(-0.00151212 0 0)
(-0.00151212 0 0)
(-0.00151212 0 0)
(-0.00151212 0 0)
(-0.00151212 0 0)
(-0.00151212 0 0)
(-0.00151212 0 0)
(-0.00151212 0 0)
(-0.00151212 0 0)
(-0.00151212 0 0)
(-0.00151212 0 0)
(-0.00151212 0 0)
(-0.00151212 0 0)
(-0.00151212 0 0)
(-0.00151212 0 0)
(-0.00151212 0 0)
(-0.00151212 0 0)
(-0.00151212 0 0)
(-0.00151212 0 0)
(-0.00151212 0 0)
(-0.00151212 0 0)
(-0.00151212 0 0)
(-0.00151212 0 0)
(-0.00151212 0 0)
(-0.00151212 0 0)
(-0.00151212 0 0)
(-0.00151212 0 0)
(-0.00151212 0 0)
(-0.00151212 0 0)
(-0.00151212 0 0)
(-0.00151212 0 0)
(-0.00151212 0 0)
(-0.00151212 0 0)
(-0.00151212 0 0)
(-0.00151212 0 0)
(-0.00151212 0 0)
(-0.00151212 0 0)
(-0.00151212 0 0)
(-0.00151212 0 0)
(-0.00151212 0 0)
(-0.00151212 0 0)
(-0.00151212 0 0)
(-0.00151212 0 0)
(-0.00151212 0 0)
(-0.00151212 0 0)
(-0.00151212 0 0)
(-0.00151212 0 0)
(-0.00151212 0 0)
(-0.00151212 0 0)
(-0.00151212 0 0)
(-0.00151212 0 0)
(-0.00151212 0 0)
(-0.00151212 0 0)
(-0.00151212 0 0)
(-0.00151212 0 0)
(-0.00151212 0 0)
(-0.00151212 0 0)
(-0.00151212 0 0)
(-0.00151212 0 0)
(-0.00151212 0 0)
(-0.00151212 0 0)
(-0.00151212 0 0)
(-0.00151212 0 0)
(-0.00151212 0 0)
(-0.00151212 0 0)
(-0.00151212 0 0)
(-0.00151212 0 0)
(-0.00151212 0 0)
(-0.00151212 0 0)
(-0.00151212 0 0)
(-0.00151212 0 0)
(-0.00151212 0 0)
(-0.00151212 0 0)
(-0.00151212 0 0)
(-0.00151212 0 0)
(-0.00151212 0 0)
(-0.00151212 0 0)
(-0.00151212 0 0)
(-0.00151212 0 0)
(-0.00151212 0 0)
(-0.00151212 0 0)
(-0.00151212 0 0)
(-0.00151212 0 0)
(-0.00151212 0 0)
(-0.00151212 0 0)
(-0.00151212 0 0)
(-0.00151212 0 0)
(-0.00151212 0 0)
(-0.00151212 0 0)
(-0.00151212 0 0)
(-0.00151212 0 0)
(-0.00151212 0 0)
(-0.00151212 0 0)
(-0.00151212 0 0)
(-0.00151212 0 0)
(-0.00151212 0 0)
(-0.00151212 0 0)
(-0.00151212 0 0)
(-0.00151212 0 0)
(-0.00151212 0 0)
(-0.00151211 0 0)
(-0.00151212 0 0)
(-0.00151211 0 0)
(-0.00151212 0 0)
(-0.00151211 0 0)
(-0.00151211 0 0)
(-0.00151211 0 0)
(-0.00151211 0 0)
(-0.00151212 0 0)
(-0.00151211 0 0)
(-0.00151211 0 0)
(-0.00151211 0 0)
(-0.00151211 0 0)
(-0.00151211 0 0)
(-0.00151211 0 0)
(-0.00151211 0 0)
(-0.00151211 0 0)
(-0.00151211 0 0)
(-0.00151211 0 0)
(-0.00151211 0 0)
(-0.00151211 0 0)
(-0.00151211 0 0)
(-0.00151211 0 0)
(-0.00151211 0 0)
(-0.00151211 0 0)
(-0.00151211 0 0)
(-0.00151211 0 0)
(-0.00151211 0 0)
(-0.00151212 0 0)
(-0.00151211 0 0)
(-0.00151212 0 0)
(-0.00151212 0 0)
(-0.00151212 0 0)
(-0.00151212 0 0)
(-0.00151212 0 0)
(-0.00151212 0 0)
(-0.00151212 0 0)
(-0.00151212 0 0)
(-0.00151212 0 0)
(-0.00151212 0 0)
(-0.00151212 0 0)
(-0.00151212 0 0)
(-0.00151213 0 0)
(-0.00151213 0 0)
(-0.00151213 0 0)
(-0.00151213 0 0)
(-0.00151213 0 0)
(-0.00151214 0 0)
(-0.00151214 0 0)
(-0.00151214 0 0)
(-0.00151214 0 0)
(-0.00151214 0 0)
(-0.00151215 0 0)
(-0.00151215 0 0)
(-0.00151215 0 0)
(-0.00151216 0 0)
(-0.00151216 0 0)
(-0.00151217 0 0)
(-0.00151217 0 0)
(-0.00151218 0 0)
(-0.00151218 0 0)
(-0.00151219 0 0)
(-0.00151219 0 0)
(-0.0015122 0 0)
(-0.00151221 0 0)
(-0.00151221 0 0)
(-0.00151222 0 0)
(-0.00151223 0 0)
(-0.00151224 0 0)
(-0.00151225 0 0)
(-0.00151226 0 0)
(-0.00151227 0 0)
(-0.00151228 0 0)
(-0.00151229 0 0)
(-0.00151231 0 0)
(-0.00151232 0 0)
(-0.00151234 0 0)
(-0.00151235 0 0)
(-0.00151237 0 0)
(-0.00151239 0 0)
(-0.00151241 0 0)
(-0.00151243 0 0)
(-0.00151245 0 0)
(-0.00151248 0 0)
(-0.0015125 0 0)
(-0.00151253 0 0)
(-0.00151256 0 0)
(-0.00151259 0 0)
(-0.00151262 0 0)
(-0.00151266 0 0)
(-0.00151269 0 0)
(-0.00151273 0 0)
(-0.00151277 0 0)
(-0.00151282 0 0)
(-0.00151286 0 0)
(-0.00151291 0 0)
(-0.00151297 0 0)
(-0.00151302 0 0)
(-0.00151308 0 0)
(-0.00151314 0 0)
(-0.00151321 0 0)
(-0.00151328 0 0)
(-0.00151336 0 0)
(-0.00151344 0 0)
(-0.00151352 0 0)
(-0.00151361 0 0)
(-0.00151371 0 0)
(-0.00151381 0 0)
(-0.00151391 0 0)
(-0.00151402 0 0)
(-0.00151414 0 0)
(-0.00151427 0 0)
(-0.0015144 0 0)
(-0.00151454 0 0)
(-0.00151469 0 0)
(-0.00151485 0 0)
(-0.00151501 0 0)
(-0.00151519 0 0)
(-0.00151537 0 0)
(-0.00151556 0 0)
(-0.00151577 0 0)
(-0.00151598 0 0)
(-0.00151621 0 0)
(-0.00151645 0 0)
(-0.0015167 0 0)
(-0.00151697 0 0)
(-0.00151725 0 0)
(-0.00151754 0 0)
(-0.00151785 0 0)
(-0.00151818 0 0)
(-0.00151852 0 0)
(-0.00151888 0 0)
(-0.00151926 0 0)
(-0.00151966 0 0)
(-0.00152008 0 0)
(-0.00152052 0 0)
(-0.00152098 0 0)
(-0.00152146 0 0)
(-0.00152197 0 0)
(-0.0015225 0 0)
(-0.00152306 0 0)
(-0.00152364 0 0)
(-0.00152425 0 0)
(-0.0015249 0 0)
(-0.00152557 0 0)
(-0.00152627 0 0)
(-0.00152701 0 0)
(-0.00152778 0 0)
(-0.00152858 0 0)
(-0.00152942 0 0)
(-0.0015303 0 0)
(-0.00153122 0 0)
(-0.00153218 0 0)
(-0.00153318 0 0)
(-0.00153423 0 0)
(-0.00153532 0 0)
(-0.00153646 0 0)
(-0.00153764 0 0)
(-0.00153888 0 0)
(-0.00154017 0 0)
(-0.00154152 0 0)
(-0.00154292 0 0)
(-0.00154438 0 0)
(-0.00154589 0 0)
(-0.00154747 0 0)
(-0.00154911 0 0)
(-0.00155082 0 0)
(-0.0015526 0 0)
(-0.00155444 0 0)
(-0.00155636 0 0)
(-0.00155835 0 0)
(-0.00156042 0 0)
(-0.00156256 0 0)
(-0.00156479 0 0)
(-0.0015671 0 0)
(-0.00156949 0 0)
(-0.00157198 0 0)
(-0.00157455 0 0)
(-0.00157721 0 0)
(-0.00157997 0 0)
(-0.00158283 0 0)
(-0.00158578 0 0)
(-0.00158884 0 0)
(-0.001592 0 0)
(-0.00159527 0 0)
(-0.00159865 0 0)
(-0.00160214 0 0)
(-0.00160574 0 0)
(-0.00160946 0 0)
(-0.0016133 0 0)
(-0.00161727 0 0)
(-0.00162136 0 0)
(-0.00162557 0 0)
(-0.00162992 0 0)
(-0.00163439 0 0)
(-0.00163901 0 0)
(-0.00164376 0 0)
(-0.00164864 0 0)
(-0.00165367 0 0)
(-0.00165885 0 0)
(-0.00166417 0 0)
(-0.00166964 0 0)
(-0.00167526 0 0)
(-0.00168104 0 0)
(-0.00168697 0 0)
(-0.00169306 0 0)
(-0.00169931 0 0)
(-0.00170572 0 0)
(-0.00171229 0 0)
(-0.00171903 0 0)
(-0.00172593 0 0)
(-0.00173301 0 0)
(-0.00174025 0 0)
(-0.00174767 0 0)
(-0.00175526 0 0)
(-0.00176302 0 0)
(-0.00177096 0 0)
(-0.00177907 0 0)
(-0.00178736 0 0)
(-0.00179583 0 0)
(-0.00180448 0 0)
(-0.00181331 0 0)
(-0.00182231 0 0)
(-0.0018315 0 0)
(-0.00184086 0 0)
(-0.00185041 0 0)
(-0.00186013 0 0)
(-0.00187003 0 0)
(-0.00188011 0 0)
(-0.00189036 0 0)
(-0.00190079 0 0)
(-0.0019114 0 0)
(-0.00192217 0 0)
(-0.00193312 0 0)
(-0.00194423 0 0)
(-0.00195552 0 0)
(-0.00196696 0 0)
(-0.00197857 0 0)
(-0.00199033 0 0)
(-0.00200225 0 0)
(-0.00201432 0 0)
(-0.00202654 0 0)
(-0.0020389 0 0)
(-0.0020514 0 0)
(-0.00206403 0 0)
(-0.00207679 0 0)
(-0.00208968 0 0)
(-0.00210268 0 0)
(-0.00211579 0 0)
(-0.00212901 0 0)
(-0.00214233 0 0)
(-0.00215574 0 0)
(-0.00216924 0 0)
(-0.00218281 0 0)
(-0.00219644 0 0)
(-0.00221014 0 0)
(-0.00222389 0 0)
(-0.00223767 0 0)
(-0.00225149 0 0)
(-0.00226533 0 0)
(-0.00227918 0 0)
(-0.00229303 0 0)
(-0.00230686 0 0)
(-0.00232067 0 0)
(-0.00233444 0 0)
(-0.00234816 0 0)
(-0.00236181 0 0)
(-0.00237539 0 0)
(-0.00238888 0 0)
(-0.00240225 0 0)
(-0.0024155 0 0)
(-0.00242861 0 0)
(-0.00244156 0 0)
(-0.00245434 0 0)
(-0.00246692 0 0)
(-0.0024793 0 0)
(-0.00249143 0 0)
(-0.00250332 0 0)
(-0.00251493 0 0)
(-0.00252625 0 0)
(-0.00253725 0 0)
(-0.0025479 0 0)
(-0.00255819 0 0)
(-0.00256808 0 0)
(-0.00257754 0 0)
(-0.00258656 0 0)
(-0.00259509 0 0)
(-0.00260311 0 0)
(-0.00261058 0 0)
(-0.00261746 0 0)
(-0.00262377 0 0)
(-0.00262948 0 0)
(-0.00263456 0 0)
(-0.00263901 0 0)
(-0.00264279 0 0)
(-0.00264582 0 0)
(-0.00264802 0 0)
(-0.00264931 0 0)
(-0.00264969 0 0)
(-0.00264911 0 0)
(-0.00264749 0 0)
(-0.00264484 0 0)
(-0.00264107 0 0)
(-0.00263613 0 0)
(-0.00262998 0 0)
(-0.00262256 0 0)
(-0.0026138 0 0)
(-0.00260364 0 0)
(-0.00259201 0 0)
(-0.00257886 0 0)
(-0.0025641 0 0)
(-0.00254767 0 0)
(-0.0025295 0 0)
(-0.00250951 0 0)
(-0.00248762 0 0)
(-0.00246376 0 0)
(-0.00243786 0 0)
(-0.00240983 0 0)
(-0.0023796 0 0)
(-0.0023471 0 0)
(-0.00231226 0 0)
(-0.00227502 0 0)
(-0.00223531 0 0)
(-0.00219309 0 0)
(-0.00214831 0 0)
(-0.00210094 0 0)
(-0.00205095 0 0)
(-0.00199833 0 0)
(-0.00194318 0 0)
(-0.00188574 0 0)
(-0.00182606 0 0)
(-0.00176196 0 0)
(-0.00168863 0 0)
(-0.00161692 0 0)
)
;

boundaryField
{
    fixedWall
    {
        type            fixedValue;
        value           uniform (0 0 0);
    }
    outlet
    {
        type            pressureInletOutletVelocity;
        value           uniform (-0.00161692 0 0);
    }
    defaultFaces
    {
        type            empty;
    }
}


// ************************************************************************* //
