/*--------------------------------*- C++ -*----------------------------------*\
| =========                 |                                                 |
| \\      /  F ield         | OpenFOAM: The Open Source CFD Toolbox           |
|  \\    /   O peration     | Version:  2406                                  |
|   \\  /    A nd           | Website:  www.openfoam.com                      |
|    \\/     M anipulation  |                                                 |
\*---------------------------------------------------------------------------*/
FoamFile
{
    version     2.0;
    format      ascii;
    arch        "LSB;label=32;scalar=64";
    class       volScalarField;
    location    "11.1";
    object      O2;
}
// * * * * * * * * * * * * * * * * * * * * * * * * * * * * * * * * * * * * * //

dimensions      [0 0 0 0 0 0 0];

internalField   nonuniform List<scalar> 
1000
(
1.10934e-06
1.10758e-06
1.10438e-06
1.09995e-06
1.09448e-06
1.08809e-06
1.0809e-06
1.073e-06
1.06447e-06
1.05536e-06
1.04574e-06
1.03565e-06
1.02514e-06
1.01425e-06
1.00301e-06
9.91463e-07
9.7963e-07
9.67542e-07
9.55223e-07
9.42697e-07
9.29987e-07
9.17113e-07
9.04095e-07
8.90952e-07
8.77701e-07
8.64359e-07
8.50944e-07
8.37469e-07
8.23952e-07
8.10405e-07
7.96845e-07
7.83283e-07
7.69735e-07
7.56212e-07
7.42728e-07
7.29296e-07
7.15927e-07
7.02633e-07
6.89425e-07
6.76315e-07
6.63314e-07
6.50432e-07
6.37678e-07
6.25062e-07
6.12594e-07
6.00281e-07
5.88133e-07
5.76156e-07
5.64358e-07
5.52745e-07
5.41324e-07
5.301e-07
5.19078e-07
5.08263e-07
4.97659e-07
4.87269e-07
4.77096e-07
4.67143e-07
4.57411e-07
4.47903e-07
4.38619e-07
4.29559e-07
4.20724e-07
4.12114e-07
4.03728e-07
3.95565e-07
3.87624e-07
3.79903e-07
3.724e-07
3.65112e-07
3.58038e-07
3.51175e-07
3.44519e-07
3.38068e-07
3.31818e-07
3.25766e-07
3.19908e-07
3.14241e-07
3.0876e-07
3.03462e-07
2.98343e-07
2.93398e-07
2.88625e-07
2.84017e-07
2.79573e-07
2.75287e-07
2.71155e-07
2.67173e-07
2.63337e-07
2.59643e-07
2.56088e-07
2.52666e-07
2.49374e-07
2.46209e-07
2.43166e-07
2.40242e-07
2.37432e-07
2.34734e-07
2.32143e-07
2.29657e-07
2.27271e-07
2.24983e-07
2.22789e-07
2.20687e-07
2.18672e-07
2.16741e-07
2.14893e-07
2.13124e-07
2.1143e-07
2.09811e-07
2.08262e-07
2.06781e-07
2.05366e-07
2.04015e-07
2.02724e-07
2.01492e-07
2.00317e-07
1.99195e-07
1.98127e-07
1.97108e-07
1.96138e-07
1.95214e-07
1.94335e-07
1.93498e-07
1.92703e-07
1.91947e-07
1.9123e-07
1.90549e-07
1.89903e-07
1.8929e-07
1.8871e-07
1.8816e-07
1.87641e-07
1.87149e-07
1.86685e-07
1.86247e-07
1.85834e-07
1.85445e-07
1.85079e-07
1.84735e-07
1.84413e-07
1.8411e-07
1.83826e-07
1.83562e-07
1.83314e-07
1.83084e-07
1.8287e-07
1.82671e-07
1.82488e-07
1.82318e-07
1.82162e-07
1.82019e-07
1.81889e-07
1.8177e-07
1.81662e-07
1.81566e-07
1.81479e-07
1.81403e-07
1.81336e-07
1.81277e-07
1.81228e-07
1.81187e-07
1.81153e-07
1.81127e-07
1.81108e-07
1.81096e-07
1.8109e-07
1.81091e-07
1.81097e-07
1.81109e-07
1.81126e-07
1.81149e-07
1.81176e-07
1.81208e-07
1.81245e-07
1.81285e-07
1.8133e-07
1.81378e-07
1.81431e-07
1.81486e-07
1.81545e-07
1.81607e-07
1.81672e-07
1.8174e-07
1.81811e-07
1.81884e-07
1.8196e-07
1.82038e-07
1.82118e-07
1.82201e-07
1.82285e-07
1.82372e-07
1.8246e-07
1.8255e-07
1.82642e-07
1.82735e-07
1.8283e-07
1.82926e-07
1.83024e-07
1.83122e-07
1.83223e-07
1.83323e-07
1.83426e-07
1.8353e-07
1.83634e-07
1.8374e-07
1.83846e-07
1.83953e-07
1.84062e-07
1.84171e-07
1.8428e-07
1.84391e-07
1.84502e-07
1.84614e-07
1.84726e-07
1.84839e-07
1.84953e-07
1.85067e-07
1.85182e-07
1.85297e-07
1.85413e-07
1.85529e-07
1.85645e-07
1.85763e-07
1.8588e-07
1.85998e-07
1.86116e-07
1.86235e-07
1.86354e-07
1.86473e-07
1.86593e-07
1.86712e-07
1.86833e-07
1.86953e-07
1.87074e-07
1.87195e-07
1.87316e-07
1.87438e-07
1.8756e-07
1.87682e-07
1.87804e-07
1.87926e-07
1.88049e-07
1.88172e-07
1.88295e-07
1.88418e-07
1.88542e-07
1.88665e-07
1.88789e-07
1.88913e-07
1.89038e-07
1.89162e-07
1.89287e-07
1.89411e-07
1.89536e-07
1.89661e-07
1.89786e-07
1.89911e-07
1.90037e-07
1.90163e-07
1.90288e-07
1.90415e-07
1.90541e-07
1.90667e-07
1.90793e-07
1.9092e-07
1.91047e-07
1.91174e-07
1.91301e-07
1.91428e-07
1.91555e-07
1.91683e-07
1.9181e-07
1.91938e-07
1.92066e-07
1.92194e-07
1.92322e-07
1.9245e-07
1.92578e-07
1.92707e-07
1.92835e-07
1.92964e-07
1.93093e-07
1.93222e-07
1.93351e-07
1.9348e-07
1.9361e-07
1.93739e-07
1.93869e-07
1.93999e-07
1.94129e-07
1.94259e-07
1.94389e-07
1.9452e-07
1.9465e-07
1.94781e-07
1.94912e-07
1.95043e-07
1.95174e-07
1.95305e-07
1.95435e-07
1.95567e-07
1.95698e-07
1.9583e-07
1.95962e-07
1.96094e-07
1.96226e-07
1.96359e-07
1.96491e-07
1.96624e-07
1.96757e-07
1.9689e-07
1.97023e-07
1.97156e-07
1.9729e-07
1.97423e-07
1.97557e-07
1.97691e-07
1.97825e-07
1.97959e-07
1.98093e-07
1.98228e-07
1.98363e-07
1.98497e-07
1.98632e-07
1.98768e-07
1.98903e-07
1.99038e-07
1.99174e-07
1.9931e-07
1.99446e-07
1.99582e-07
1.99718e-07
1.99855e-07
1.99992e-07
2.00128e-07
2.00265e-07
2.00403e-07
2.0054e-07
2.00678e-07
2.00815e-07
2.00953e-07
2.01091e-07
2.0123e-07
2.01368e-07
2.01507e-07
2.01646e-07
2.01785e-07
2.01924e-07
2.02063e-07
2.02203e-07
2.02343e-07
2.02483e-07
2.02623e-07
2.02763e-07
2.02904e-07
2.03044e-07
2.03185e-07
2.03327e-07
2.03468e-07
2.03609e-07
2.03751e-07
2.03893e-07
2.04035e-07
2.04178e-07
2.0432e-07
2.04463e-07
2.04606e-07
2.04749e-07
2.04892e-07
2.05036e-07
2.0518e-07
2.05324e-07
2.05468e-07
2.05613e-07
2.05757e-07
2.05902e-07
2.06047e-07
2.06192e-07
2.06338e-07
2.06484e-07
2.06629e-07
2.06776e-07
2.06922e-07
2.07069e-07
2.07215e-07
2.07362e-07
2.0751e-07
2.07657e-07
2.07805e-07
2.07952e-07
2.08101e-07
2.08249e-07
2.08397e-07
2.08546e-07
2.08695e-07
2.08844e-07
2.08994e-07
2.09143e-07
2.09293e-07
2.09443e-07
2.09594e-07
2.09744e-07
2.09895e-07
2.10046e-07
2.10197e-07
2.10348e-07
2.105e-07
2.10652e-07
2.10804e-07
2.10956e-07
2.11109e-07
2.11262e-07
2.11415e-07
2.11568e-07
2.11721e-07
2.11875e-07
2.12029e-07
2.12183e-07
2.12337e-07
2.12492e-07
2.12647e-07
2.12802e-07
2.12957e-07
2.13112e-07
2.13268e-07
2.13424e-07
2.1358e-07
2.13736e-07
2.13893e-07
2.1405e-07
2.14207e-07
2.14364e-07
2.14522e-07
2.1468e-07
2.14838e-07
2.14996e-07
2.15154e-07
2.15313e-07
2.15472e-07
2.15631e-07
2.1579e-07
2.1595e-07
2.1611e-07
2.1627e-07
2.1643e-07
2.16591e-07
2.16752e-07
2.16913e-07
2.17074e-07
2.17235e-07
2.17397e-07
2.17559e-07
2.17721e-07
2.17884e-07
2.18047e-07
2.1821e-07
2.18373e-07
2.18536e-07
2.187e-07
2.18864e-07
2.19028e-07
2.19192e-07
2.19357e-07
2.19522e-07
2.19687e-07
2.19852e-07
2.20018e-07
2.20184e-07
2.2035e-07
2.20517e-07
2.20683e-07
2.2085e-07
2.21017e-07
2.21185e-07
2.21352e-07
2.2152e-07
2.21688e-07
2.21857e-07
2.22026e-07
2.22195e-07
2.22364e-07
2.22533e-07
2.22703e-07
2.22873e-07
2.23043e-07
2.23214e-07
2.23384e-07
2.23556e-07
2.23727e-07
2.23898e-07
2.2407e-07
2.24242e-07
2.24415e-07
2.24587e-07
2.2476e-07
2.24933e-07
2.25107e-07
2.2528e-07
2.25454e-07
2.25629e-07
2.25803e-07
2.25978e-07
2.26153e-07
2.26328e-07
2.26504e-07
2.2668e-07
2.26856e-07
2.27032e-07
2.27209e-07
2.27386e-07
2.27563e-07
2.27741e-07
2.27919e-07
2.28097e-07
2.28275e-07
2.28454e-07
2.28633e-07
2.28812e-07
2.28992e-07
2.29171e-07
2.29352e-07
2.29532e-07
2.29713e-07
2.29893e-07
2.30075e-07
2.30256e-07
2.30438e-07
2.3062e-07
2.30802e-07
2.30985e-07
2.31168e-07
2.31351e-07
2.31535e-07
2.31718e-07
2.31903e-07
2.32087e-07
2.32272e-07
2.32457e-07
2.32642e-07
2.32827e-07
2.33013e-07
2.33199e-07
2.33386e-07
2.33573e-07
2.3376e-07
2.33947e-07
2.34134e-07
2.34322e-07
2.34511e-07
2.34699e-07
2.34888e-07
2.35077e-07
2.35266e-07
2.35456e-07
2.35646e-07
2.35836e-07
2.36027e-07
2.36218e-07
2.36409e-07
2.36601e-07
2.36792e-07
2.36985e-07
2.37177e-07
2.3737e-07
2.37563e-07
2.37756e-07
2.3795e-07
2.38144e-07
2.38338e-07
2.38533e-07
2.38728e-07
2.38923e-07
2.39119e-07
2.39314e-07
2.39511e-07
2.39707e-07
2.39904e-07
2.40101e-07
2.40299e-07
2.40496e-07
2.40694e-07
2.40893e-07
2.41092e-07
2.41291e-07
2.4149e-07
2.4169e-07
2.4189e-07
2.4209e-07
2.42291e-07
2.42492e-07
2.42694e-07
2.42895e-07
2.43097e-07
2.433e-07
2.43503e-07
2.43706e-07
2.43909e-07
2.44113e-07
2.44317e-07
2.44522e-07
2.44726e-07
2.44932e-07
2.45137e-07
2.45343e-07
2.45549e-07
2.45756e-07
2.45963e-07
2.4617e-07
2.46378e-07
2.46586e-07
2.46794e-07
2.47003e-07
2.47212e-07
2.47421e-07
2.47631e-07
2.47841e-07
2.48052e-07
2.48263e-07
2.48474e-07
2.48686e-07
2.48898e-07
2.49109e-07
2.49321e-07
2.49534e-07
2.49747e-07
2.49961e-07
2.50175e-07
2.5039e-07
2.50605e-07
2.5082e-07
2.51036e-07
2.51252e-07
2.51469e-07
2.51686e-07
2.51903e-07
2.52121e-07
2.52339e-07
2.52557e-07
2.52776e-07
2.52995e-07
2.53215e-07
2.53435e-07
2.53655e-07
2.53876e-07
2.54097e-07
2.54319e-07
2.54541e-07
2.54763e-07
2.54986e-07
2.55209e-07
2.55432e-07
2.55656e-07
2.5588e-07
2.56105e-07
2.5633e-07
2.56555e-07
2.56781e-07
2.57008e-07
2.57234e-07
2.57461e-07
2.57689e-07
2.57917e-07
2.58145e-07
2.58373e-07
2.58603e-07
2.58832e-07
2.59062e-07
2.59292e-07
2.59523e-07
2.59754e-07
2.59985e-07
2.60217e-07
2.60449e-07
2.60681e-07
2.60913e-07
2.61146e-07
2.6138e-07
2.61615e-07
2.61849e-07
2.62084e-07
2.6232e-07
2.62555e-07
2.62792e-07
2.63028e-07
2.63265e-07
2.63503e-07
2.63741e-07
2.63979e-07
2.64218e-07
2.64457e-07
2.64696e-07
2.64936e-07
2.65177e-07
2.65418e-07
2.65659e-07
2.659e-07
2.66142e-07
2.66385e-07
2.66628e-07
2.66871e-07
2.67115e-07
2.67359e-07
2.67604e-07
2.67849e-07
2.68094e-07
2.6834e-07
2.68587e-07
2.68833e-07
2.69081e-07
2.69328e-07
2.69576e-07
2.69825e-07
2.70074e-07
2.70324e-07
2.70574e-07
2.70824e-07
2.71075e-07
2.71326e-07
2.71578e-07
2.7183e-07
2.72083e-07
2.72336e-07
2.7259e-07
2.72844e-07
2.73099e-07
2.73354e-07
2.73609e-07
2.73865e-07
2.74122e-07
2.74379e-07
2.74637e-07
2.74895e-07
2.75153e-07
2.75412e-07
2.75672e-07
2.75932e-07
2.76193e-07
2.76454e-07
2.76716e-07
2.76978e-07
2.77241e-07
2.77504e-07
2.77768e-07
2.78031e-07
2.78294e-07
2.78559e-07
2.78825e-07
2.79091e-07
2.79358e-07
2.79625e-07
2.79893e-07
2.80161e-07
2.8043e-07
2.807e-07
2.8097e-07
2.8124e-07
2.81512e-07
2.81783e-07
2.82056e-07
2.82328e-07
2.82602e-07
2.82876e-07
2.8315e-07
2.83426e-07
2.83701e-07
2.83977e-07
2.84254e-07
2.84532e-07
2.8481e-07
2.85088e-07
2.85367e-07
2.85647e-07
2.85927e-07
2.86208e-07
2.8649e-07
2.86772e-07
2.87054e-07
2.87337e-07
2.87621e-07
2.87906e-07
2.88191e-07
2.88476e-07
2.88763e-07
2.8905e-07
2.89337e-07
2.89625e-07
2.89914e-07
2.90204e-07
2.90494e-07
2.90784e-07
2.91076e-07
2.91368e-07
2.91661e-07
2.91954e-07
2.92248e-07
2.92543e-07
2.92839e-07
2.93136e-07
2.93433e-07
2.93731e-07
2.9403e-07
2.9433e-07
2.9463e-07
2.94932e-07
2.95234e-07
2.95538e-07
2.95842e-07
2.96148e-07
2.96455e-07
2.96762e-07
2.97071e-07
2.97382e-07
2.97693e-07
2.98006e-07
2.9832e-07
2.98636e-07
2.98954e-07
2.99273e-07
2.99594e-07
2.99917e-07
3.00242e-07
3.00569e-07
3.00899e-07
3.01231e-07
3.01565e-07
3.01902e-07
3.02242e-07
3.02585e-07
3.02932e-07
3.03282e-07
3.03636e-07
3.03994e-07
3.04356e-07
3.04722e-07
3.05094e-07
3.05471e-07
3.05854e-07
3.06242e-07
3.06637e-07
3.07039e-07
3.07448e-07
3.07866e-07
3.08291e-07
3.08726e-07
3.0917e-07
3.09625e-07
3.1009e-07
3.10568e-07
3.11058e-07
3.11561e-07
3.12079e-07
3.12612e-07
3.13162e-07
3.13729e-07
3.14315e-07
3.14921e-07
3.15549e-07
3.16199e-07
3.16873e-07
3.17573e-07
3.18301e-07
3.19058e-07
3.19847e-07
3.20668e-07
3.21525e-07
3.2242e-07
3.23355e-07
3.24333e-07
3.25356e-07
3.26427e-07
3.27549e-07
3.28726e-07
3.2996e-07
3.31255e-07
3.32615e-07
3.34043e-07
3.35545e-07
3.37123e-07
3.38783e-07
3.40528e-07
3.42365e-07
3.44299e-07
3.46334e-07
3.48476e-07
3.50732e-07
3.53108e-07
3.5561e-07
3.58244e-07
3.61019e-07
3.63941e-07
3.67019e-07
3.7026e-07
3.73672e-07
3.77264e-07
3.81045e-07
3.85025e-07
3.89213e-07
3.93619e-07
3.98254e-07
4.03127e-07
4.0825e-07
4.13635e-07
4.19292e-07
4.25234e-07
4.31473e-07
4.38021e-07
4.4489e-07
4.52095e-07
4.59647e-07
4.6756e-07
4.75848e-07
4.84523e-07
4.936e-07
5.03091e-07
5.13011e-07
5.23372e-07
5.34187e-07
5.4547e-07
5.57232e-07
5.69485e-07
5.8224e-07
5.95509e-07
6.09299e-07
6.23621e-07
6.38481e-07
6.53885e-07
6.69838e-07
6.86342e-07
7.03399e-07
7.21006e-07
7.3916e-07
7.57855e-07
7.77082e-07
7.96827e-07
8.17075e-07
8.37806e-07
8.58997e-07
8.80619e-07
9.02641e-07
9.25025e-07
9.47728e-07
9.70704e-07
9.93899e-07
1.01725e-06
1.04071e-06
1.06418e-06
1.08761e-06
1.11091e-06
1.13398e-06
1.15674e-06
1.17908e-06
1.20091e-06
1.22211e-06
1.24256e-06
1.26216e-06
1.28078e-06
1.29829e-06
1.31456e-06
1.32948e-06
1.34292e-06
1.35473e-06
1.36481e-06
1.37302e-06
1.37925e-06
1.38337e-06
1.38524e-06
1.38481e-06
1.38195e-06
1.37658e-06
1.36858e-06
1.3579e-06
1.34445e-06
1.32817e-06
1.309e-06
1.28691e-06
1.26185e-06
1.23381e-06
1.20276e-06
1.16872e-06
1.13169e-06
1.0917e-06
1.04879e-06
1.00301e-06
9.54449e-07
9.03192e-07
8.49356e-07
7.93081e-07
7.34533e-07
6.73908e-07
6.11436e-07
5.47387e-07
4.82076e-07
4.15865e-07
3.49176e-07
2.82496e-07
2.16383e-07
1.51478e-07
8.85052e-08
2.82809e-08
)
;

boundaryField
{
    fixedWall
    {
        type            zeroGradient;
    }
    outlet
    {
        type            inletOutlet;
        inletValue      uniform 0;
        value           uniform 0;
    }
    defaultFaces
    {
        type            empty;
    }
}


// ************************************************************************* //
