/*--------------------------------*- C++ -*----------------------------------*\
| =========                 |                                                 |
| \\      /  F ield         | OpenFOAM: The Open Source CFD Toolbox           |
|  \\    /   O peration     | Version:  2406                                  |
|   \\  /    A nd           | Website:  www.openfoam.com                      |
|    \\/     M anipulation  |                                                 |
\*---------------------------------------------------------------------------*/
FoamFile
{
    version     2.0;
    format      ascii;
    arch        "LSB;label=32;scalar=64";
    class       volScalarField;
    location    "11.1";
    object      T;
}
// * * * * * * * * * * * * * * * * * * * * * * * * * * * * * * * * * * * * * //

dimensions      [0 0 0 1 0 0 0];

internalField   nonuniform List<scalar> 
1000
(
305.186
327.716
348.633
368.187
386.567
403.921
420.368
436.004
450.909
465.151
478.786
491.864
504.427
516.513
528.155
539.381
550.217
560.687
570.81
580.607
590.093
599.284
608.195
616.838
625.225
633.368
641.276
648.959
656.425
663.684
670.741
677.606
684.284
690.782
697.106
703.261
709.252
715.086
720.765
726.297
731.683
736.929
742.039
747.016
751.864
756.586
761.187
765.668
770.034
774.286
778.428
782.464
786.394
790.223
793.952
797.584
801.121
804.566
807.921
811.187
814.368
817.464
820.479
823.414
826.27
829.051
831.756
834.389
836.951
839.444
841.868
844.227
846.521
848.751
850.92
853.029
855.079
857.072
859.009
860.891
862.719
864.496
866.221
867.897
869.525
871.105
872.639
874.128
875.573
876.976
878.336
879.656
880.936
882.178
883.382
884.549
885.68
886.776
887.839
888.868
889.865
890.83
891.765
892.67
893.547
894.394
895.215
896.009
896.777
897.519
898.237
898.932
899.603
900.251
900.878
901.483
902.068
902.632
903.177
903.704
904.211
904.701
905.174
905.63
906.07
906.494
906.903
907.296
907.676
908.042
908.394
908.733
909.06
909.374
909.676
909.968
910.248
910.517
910.776
911.025
911.264
911.494
911.715
911.927
912.131
912.327
912.515
912.695
912.868
913.034
913.193
913.346
913.492
913.632
913.767
913.895
914.019
914.137
914.25
914.358
914.461
914.56
914.655
914.746
914.832
914.915
914.993
915.069
915.141
915.21
915.275
915.338
915.398
915.455
915.51
915.562
915.611
915.658
915.703
915.746
915.787
915.826
915.863
915.898
915.931
915.963
915.993
916.022
916.049
916.075
916.099
916.123
916.145
916.166
916.186
916.204
916.222
916.239
916.255
916.27
916.285
916.298
916.311
916.323
916.334
916.345
916.355
916.365
916.374
916.382
916.39
916.398
916.405
916.412
916.418
916.424
916.429
916.434
916.439
916.444
916.448
916.452
916.456
916.459
916.462
916.465
916.468
916.471
916.473
916.475
916.478
916.479
916.481
916.483
916.484
916.486
916.487
916.488
916.489
916.49
916.491
916.492
916.492
916.493
916.494
916.494
916.495
916.495
916.495
916.496
916.496
916.496
916.496
916.496
916.496
916.496
916.496
916.496
916.496
916.496
916.496
916.496
916.496
916.496
916.496
916.496
916.496
916.496
916.495
916.495
916.495
916.495
916.495
916.495
916.495
916.494
916.494
916.494
916.494
916.494
916.494
916.494
916.493
916.493
916.493
916.493
916.493
916.493
916.493
916.493
916.493
916.493
916.493
916.492
916.492
916.492
916.492
916.492
916.492
916.492
916.492
916.492
916.492
916.492
916.492
916.492
916.492
916.492
916.493
916.493
916.493
916.493
916.493
916.493
916.493
916.493
916.493
916.493
916.494
916.494
916.494
916.494
916.494
916.494
916.494
916.495
916.495
916.495
916.495
916.495
916.496
916.496
916.496
916.496
916.496
916.497
916.497
916.497
916.497
916.497
916.498
916.498
916.498
916.498
916.499
916.499
916.499
916.499
916.5
916.5
916.5
916.5
916.5
916.501
916.501
916.501
916.501
916.502
916.502
916.502
916.502
916.503
916.503
916.503
916.503
916.503
916.504
916.504
916.504
916.504
916.505
916.505
916.505
916.505
916.505
916.506
916.506
916.506
916.506
916.506
916.507
916.507
916.507
916.507
916.507
916.507
916.508
916.508
916.508
916.508
916.508
916.508
916.509
916.509
916.509
916.509
916.509
916.509
916.509
916.51
916.51
916.51
916.51
916.51
916.51
916.51
916.51
916.51
916.511
916.511
916.511
916.511
916.511
916.511
916.511
916.511
916.511
916.511
916.512
916.512
916.512
916.512
916.512
916.512
916.512
916.512
916.512
916.512
916.512
916.512
916.512
916.512
916.512
916.513
916.513
916.513
916.513
916.513
916.513
916.513
916.513
916.513
916.513
916.513
916.513
916.513
916.513
916.513
916.513
916.513
916.513
916.513
916.513
916.514
916.514
916.514
916.514
916.514
916.514
916.514
916.514
916.514
916.514
916.514
916.514
916.514
916.514
916.514
916.514
916.514
916.514
916.514
916.514
916.514
916.514
916.514
916.514
916.514
916.514
916.514
916.514
916.515
916.515
916.515
916.515
916.515
916.515
916.515
916.515
916.515
916.515
916.515
916.515
916.515
916.515
916.515
916.515
916.515
916.515
916.515
916.515
916.515
916.515
916.515
916.515
916.515
916.515
916.515
916.515
916.515
916.515
916.515
916.515
916.515
916.515
916.515
916.515
916.515
916.515
916.515
916.515
916.515
916.515
916.515
916.515
916.515
916.515
916.515
916.515
916.515
916.515
916.515
916.515
916.515
916.516
916.516
916.516
916.516
916.516
916.516
916.516
916.516
916.516
916.516
916.516
916.516
916.516
916.516
916.516
916.516
916.516
916.516
916.516
916.516
916.516
916.516
916.516
916.516
916.516
916.516
916.516
916.516
916.516
916.516
916.516
916.516
916.516
916.516
916.516
916.517
916.517
916.517
916.517
916.517
916.517
916.517
916.517
916.517
916.517
916.517
916.517
916.517
916.517
916.517
916.517
916.517
916.517
916.517
916.517
916.517
916.517
916.517
916.517
916.518
916.518
916.518
916.518
916.518
916.518
916.518
916.518
916.518
916.518
916.518
916.518
916.518
916.518
916.518
916.518
916.518
916.518
916.518
916.518
916.518
916.518
916.518
916.518
916.518
916.518
916.518
916.518
916.518
916.518
916.518
916.518
916.518
916.518
916.518
916.518
916.518
916.518
916.518
916.518
916.518
916.518
916.518
916.518
916.518
916.518
916.518
916.518
916.518
916.518
916.518
916.518
916.518
916.518
916.518
916.518
916.518
916.518
916.518
916.518
916.518
916.518
916.518
916.518
916.518
916.517
916.517
916.517
916.517
916.517
916.517
916.517
916.517
916.517
916.517
916.517
916.517
916.517
916.517
916.517
916.517
916.517
916.517
916.517
916.517
916.517
916.517
916.517
916.517
916.517
916.517
916.517
916.517
916.517
916.517
916.517
916.518
916.518
916.518
916.518
916.518
916.518
916.518
916.518
916.518
916.518
916.518
916.518
916.518
916.518
916.518
916.518
916.518
916.518
916.519
916.519
916.519
916.519
916.519
916.519
916.519
916.519
916.519
916.519
916.519
916.519
916.519
916.52
916.52
916.52
916.52
916.52
916.52
916.52
916.52
916.52
916.52
916.52
916.52
916.52
916.52
916.52
916.52
916.521
916.521
916.521
916.521
916.521
916.521
916.521
916.521
916.521
916.521
916.521
916.521
916.521
916.521
916.521
916.521
916.52
916.52
916.52
916.52
916.52
916.52
916.52
916.52
916.52
916.52
916.52
916.519
916.519
916.519
916.519
916.519
916.519
916.518
916.518
916.518
916.518
916.517
916.517
916.517
916.516
916.516
916.516
916.515
916.515
916.514
916.514
916.513
916.513
916.512
916.512
916.511
916.51
916.51
916.509
916.508
916.507
916.506
916.505
916.503
916.502
916.501
916.499
916.498
916.496
916.494
916.492
916.49
916.487
916.485
916.482
916.479
916.476
916.472
916.469
916.465
916.46
916.455
916.45
916.445
916.439
916.433
916.426
916.418
916.41
916.402
916.393
916.383
916.372
916.361
916.348
916.335
916.321
916.306
916.289
916.272
916.253
916.233
916.211
916.188
916.163
916.136
916.108
916.077
916.045
916.01
915.973
915.933
915.891
915.846
915.798
915.747
915.692
915.634
915.572
915.506
915.436
915.362
915.283
915.199
915.11
915.016
914.916
914.81
914.697
914.578
914.452
914.319
914.178
914.029
913.872
913.706
913.531
913.346
913.152
912.946
912.73
912.502
912.263
912.011
911.746
911.468
911.175
910.868
910.546
910.208
909.854
909.482
909.093
908.686
908.26
907.814
907.347
906.86
906.351
905.82
905.265
904.686
904.082
903.453
902.797
902.114
901.403
900.662
899.892
899.092
898.259
897.394
896.496
895.563
894.595
893.59
892.548
891.467
890.347
889.187
887.985
886.74
885.451
884.118
882.738
881.311
879.835
878.31
876.733
875.104
873.42
871.682
869.887
868.033
866.12
864.145
862.108
860.005
857.836
855.599
853.291
850.911
848.456
845.925
843.315
840.624
837.85
834.989
832.039
828.997
825.86
822.626
819.291
815.851
812.303
808.643
804.867
800.972
796.952
792.802
788.52
784.098
779.532
774.816
769.945
764.911
759.709
754.332
748.773
743.024
737.077
730.924
724.557
717.968
711.216
704.159
696.847
689.27
681.417
673.279
664.843
656.098
647.032
637.634
627.892
617.792
607.325
596.478
585.24
573.603
561.557
549.095
536.212
522.905
509.174
495.022
480.455
465.487
450.133
434.417
418.369
402.027
385.438
368.658
351.755
334.81
317.917
301.188
)
;

boundaryField
{
    fixedWall
    {
        type            fixedValue;
        value           uniform 293;
    }
    outlet
    {
        type            inletOutlet;
        inletValue      uniform 293;
        value           uniform 293;
    }
    defaultFaces
    {
        type            empty;
    }
}


// ************************************************************************* //
