/*--------------------------------*- C++ -*----------------------------------*\
| =========                 |                                                 |
| \\      /  F ield         | OpenFOAM: The Open Source CFD Toolbox           |
|  \\    /   O peration     | Version:  2406                                  |
|   \\  /    A nd           | Website:  www.openfoam.com                      |
|    \\/     M anipulation  |                                                 |
\*---------------------------------------------------------------------------*/
FoamFile
{
    version     2.0;
    format      ascii;
    arch        "LSB;label=32;scalar=64";
    class       surfaceScalarField;
    location    "14.6";
    object      phi;
}
// * * * * * * * * * * * * * * * * * * * * * * * * * * * * * * * * * * * * * //

dimensions      [1 0 -1 0 0 0 0];

oriented        oriented;

internalField   nonuniform List<scalar> 
999
(
-1.03696e-08
-3.54686e-08
-7.04744e-08
-1.12273e-07
-1.58791e-07
-2.08588e-07
-2.60642e-07
-3.14227e-07
-3.68811e-07
-4.23988e-07
-4.79469e-07
-5.35022e-07
-5.90477e-07
-6.457e-07
-7.00592e-07
-7.55075e-07
-8.09086e-07
-8.62583e-07
-9.15532e-07
-9.67904e-07
-1.01968e-06
-1.07085e-06
-1.12141e-06
-1.17134e-06
-1.22065e-06
-1.26932e-06
-1.31737e-06
-1.3648e-06
-1.4116e-06
-1.45778e-06
-1.50335e-06
-1.54831e-06
-1.59266e-06
-1.63642e-06
-1.67959e-06
-1.72217e-06
-1.76417e-06
-1.80559e-06
-1.84646e-06
-1.88676e-06
-1.9265e-06
-1.9657e-06
-2.00436e-06
-2.04248e-06
-2.08007e-06
-2.11714e-06
-2.15369e-06
-2.18973e-06
-2.22526e-06
-2.26029e-06
-2.29483e-06
-2.32887e-06
-2.36243e-06
-2.39551e-06
-2.42812e-06
-2.46025e-06
-2.49193e-06
-2.52314e-06
-2.5539e-06
-2.58421e-06
-2.61407e-06
-2.64349e-06
-2.67248e-06
-2.70103e-06
-2.72916e-06
-2.75686e-06
-2.78415e-06
-2.81102e-06
-2.83748e-06
-2.86353e-06
-2.88918e-06
-2.91444e-06
-2.9393e-06
-2.96377e-06
-2.98785e-06
-3.01155e-06
-3.03487e-06
-3.05782e-06
-3.0804e-06
-3.10261e-06
-3.12446e-06
-3.14595e-06
-3.16708e-06
-3.18786e-06
-3.20829e-06
-3.22838e-06
-3.24813e-06
-3.26754e-06
-3.28661e-06
-3.30536e-06
-3.32378e-06
-3.34187e-06
-3.35965e-06
-3.37711e-06
-3.39426e-06
-3.4111e-06
-3.42764e-06
-3.44387e-06
-3.4598e-06
-3.47544e-06
-3.49079e-06
-3.50585e-06
-3.52063e-06
-3.53513e-06
-3.54935e-06
-3.56329e-06
-3.57697e-06
-3.59037e-06
-3.60351e-06
-3.61639e-06
-3.62902e-06
-3.64139e-06
-3.65351e-06
-3.66539e-06
-3.67702e-06
-3.68841e-06
-3.69956e-06
-3.71048e-06
-3.72117e-06
-3.73164e-06
-3.74188e-06
-3.7519e-06
-3.7617e-06
-3.77129e-06
-3.78066e-06
-3.78983e-06
-3.7988e-06
-3.80756e-06
-3.81613e-06
-3.8245e-06
-3.83268e-06
-3.84067e-06
-3.84847e-06
-3.8561e-06
-3.86354e-06
-3.87081e-06
-3.8779e-06
-3.88483e-06
-3.89158e-06
-3.89818e-06
-3.90461e-06
-3.91088e-06
-3.917e-06
-3.92296e-06
-3.92878e-06
-3.93444e-06
-3.93996e-06
-3.94535e-06
-3.95059e-06
-3.95569e-06
-3.96067e-06
-3.96551e-06
-3.97022e-06
-3.97481e-06
-3.97927e-06
-3.98362e-06
-3.98784e-06
-3.99196e-06
-3.99595e-06
-3.99984e-06
-4.00362e-06
-4.00729e-06
-4.01086e-06
-4.01433e-06
-4.0177e-06
-4.02097e-06
-4.02415e-06
-4.02724e-06
-4.03024e-06
-4.03315e-06
-4.03598e-06
-4.03873e-06
-4.04137e-06
-4.04395e-06
-4.04645e-06
-4.04887e-06
-4.05122e-06
-4.0535e-06
-4.05572e-06
-4.05786e-06
-4.05992e-06
-4.06192e-06
-4.06385e-06
-4.06572e-06
-4.06753e-06
-4.06929e-06
-4.07099e-06
-4.07263e-06
-4.07421e-06
-4.07575e-06
-4.07724e-06
-4.0787e-06
-4.08009e-06
-4.08144e-06
-4.08274e-06
-4.08399e-06
-4.0852e-06
-4.08637e-06
-4.08752e-06
-4.08862e-06
-4.08967e-06
-4.09069e-06
-4.09168e-06
-4.09262e-06
-4.09353e-06
-4.09441e-06
-4.09526e-06
-4.09608e-06
-4.09686e-06
-4.09762e-06
-4.09835e-06
-4.09905e-06
-4.09973e-06
-4.10038e-06
-4.10101e-06
-4.10161e-06
-4.1022e-06
-4.10276e-06
-4.1033e-06
-4.10382e-06
-4.10432e-06
-4.1048e-06
-4.10526e-06
-4.1057e-06
-4.10612e-06
-4.10653e-06
-4.10692e-06
-4.1073e-06
-4.10766e-06
-4.10801e-06
-4.10834e-06
-4.10865e-06
-4.10896e-06
-4.10925e-06
-4.10953e-06
-4.1098e-06
-4.11006e-06
-4.11031e-06
-4.11055e-06
-4.11077e-06
-4.11099e-06
-4.1112e-06
-4.1114e-06
-4.11159e-06
-4.11177e-06
-4.11194e-06
-4.11211e-06
-4.11227e-06
-4.11242e-06
-4.11256e-06
-4.1127e-06
-4.11283e-06
-4.11296e-06
-4.11308e-06
-4.11319e-06
-4.1133e-06
-4.11341e-06
-4.11351e-06
-4.1136e-06
-4.11369e-06
-4.11378e-06
-4.11386e-06
-4.11394e-06
-4.11401e-06
-4.11408e-06
-4.11415e-06
-4.11421e-06
-4.11427e-06
-4.11433e-06
-4.11438e-06
-4.11443e-06
-4.11448e-06
-4.11453e-06
-4.11457e-06
-4.11461e-06
-4.11465e-06
-4.11469e-06
-4.11472e-06
-4.11476e-06
-4.11479e-06
-4.11482e-06
-4.11485e-06
-4.11487e-06
-4.1149e-06
-4.11492e-06
-4.11494e-06
-4.11496e-06
-4.11498e-06
-4.115e-06
-4.11502e-06
-4.11503e-06
-4.11505e-06
-4.11506e-06
-4.11508e-06
-4.11509e-06
-4.1151e-06
-4.11511e-06
-4.11512e-06
-4.11513e-06
-4.11513e-06
-4.11514e-06
-4.11515e-06
-4.11516e-06
-4.11516e-06
-4.11517e-06
-4.11517e-06
-4.11518e-06
-4.11518e-06
-4.11519e-06
-4.11519e-06
-4.11519e-06
-4.11519e-06
-4.1152e-06
-4.1152e-06
-4.1152e-06
-4.1152e-06
-4.1152e-06
-4.11521e-06
-4.11521e-06
-4.11521e-06
-4.11521e-06
-4.11521e-06
-4.11521e-06
-4.11521e-06
-4.11521e-06
-4.11521e-06
-4.11521e-06
-4.11521e-06
-4.11521e-06
-4.11521e-06
-4.11521e-06
-4.1152e-06
-4.1152e-06
-4.1152e-06
-4.1152e-06
-4.1152e-06
-4.1152e-06
-4.1152e-06
-4.1152e-06
-4.1152e-06
-4.1152e-06
-4.1152e-06
-4.1152e-06
-4.1152e-06
-4.1152e-06
-4.11519e-06
-4.11519e-06
-4.11519e-06
-4.11519e-06
-4.11519e-06
-4.11519e-06
-4.11519e-06
-4.11519e-06
-4.11519e-06
-4.11518e-06
-4.11518e-06
-4.11518e-06
-4.11518e-06
-4.11518e-06
-4.11518e-06
-4.11518e-06
-4.11518e-06
-4.11518e-06
-4.11518e-06
-4.11518e-06
-4.11518e-06
-4.11518e-06
-4.11518e-06
-4.11518e-06
-4.11518e-06
-4.11518e-06
-4.11518e-06
-4.11518e-06
-4.11518e-06
-4.11518e-06
-4.11518e-06
-4.11518e-06
-4.11518e-06
-4.11518e-06
-4.11517e-06
-4.11517e-06
-4.11517e-06
-4.11517e-06
-4.11517e-06
-4.11517e-06
-4.11517e-06
-4.11517e-06
-4.11518e-06
-4.11518e-06
-4.11518e-06
-4.11518e-06
-4.11518e-06
-4.11518e-06
-4.11518e-06
-4.11518e-06
-4.11518e-06
-4.11518e-06
-4.11518e-06
-4.11518e-06
-4.11518e-06
-4.11518e-06
-4.11518e-06
-4.11518e-06
-4.11518e-06
-4.11518e-06
-4.11518e-06
-4.11518e-06
-4.11518e-06
-4.11518e-06
-4.11518e-06
-4.11518e-06
-4.11518e-06
-4.11518e-06
-4.11518e-06
-4.11518e-06
-4.11518e-06
-4.11518e-06
-4.11518e-06
-4.11518e-06
-4.11518e-06
-4.11518e-06
-4.11518e-06
-4.11518e-06
-4.11518e-06
-4.11518e-06
-4.11518e-06
-4.11519e-06
-4.11519e-06
-4.11519e-06
-4.11519e-06
-4.11519e-06
-4.11519e-06
-4.11519e-06
-4.11519e-06
-4.11519e-06
-4.11519e-06
-4.11519e-06
-4.11519e-06
-4.11519e-06
-4.11519e-06
-4.11519e-06
-4.11519e-06
-4.11519e-06
-4.11519e-06
-4.11519e-06
-4.11519e-06
-4.11519e-06
-4.11519e-06
-4.11519e-06
-4.11519e-06
-4.11519e-06
-4.11519e-06
-4.11519e-06
-4.11519e-06
-4.11519e-06
-4.11519e-06
-4.11519e-06
-4.11519e-06
-4.11519e-06
-4.11519e-06
-4.11519e-06
-4.11519e-06
-4.11519e-06
-4.11519e-06
-4.11519e-06
-4.11519e-06
-4.11519e-06
-4.11519e-06
-4.11519e-06
-4.11519e-06
-4.11519e-06
-4.11519e-06
-4.11519e-06
-4.11519e-06
-4.11519e-06
-4.11519e-06
-4.11519e-06
-4.11519e-06
-4.11519e-06
-4.11519e-06
-4.11519e-06
-4.11519e-06
-4.11519e-06
-4.11519e-06
-4.11519e-06
-4.11519e-06
-4.11519e-06
-4.11519e-06
-4.11519e-06
-4.11519e-06
-4.11519e-06
-4.11519e-06
-4.11519e-06
-4.11519e-06
-4.11519e-06
-4.11519e-06
-4.11519e-06
-4.11519e-06
-4.11519e-06
-4.11519e-06
-4.11519e-06
-4.11519e-06
-4.11519e-06
-4.11519e-06
-4.11519e-06
-4.11519e-06
-4.11519e-06
-4.11519e-06
-4.11519e-06
-4.11519e-06
-4.11519e-06
-4.11519e-06
-4.11519e-06
-4.11519e-06
-4.11519e-06
-4.11519e-06
-4.11519e-06
-4.11519e-06
-4.11519e-06
-4.11519e-06
-4.11519e-06
-4.11518e-06
-4.11519e-06
-4.11518e-06
-4.11518e-06
-4.11518e-06
-4.11518e-06
-4.11518e-06
-4.11518e-06
-4.11518e-06
-4.11518e-06
-4.11518e-06
-4.11518e-06
-4.11518e-06
-4.11518e-06
-4.11518e-06
-4.11518e-06
-4.11518e-06
-4.11518e-06
-4.11518e-06
-4.11518e-06
-4.11518e-06
-4.11518e-06
-4.11518e-06
-4.11518e-06
-4.11518e-06
-4.11518e-06
-4.11518e-06
-4.11517e-06
-4.11517e-06
-4.11517e-06
-4.11517e-06
-4.11517e-06
-4.11517e-06
-4.11517e-06
-4.11517e-06
-4.11517e-06
-4.11517e-06
-4.11517e-06
-4.11517e-06
-4.11517e-06
-4.11517e-06
-4.11517e-06
-4.11517e-06
-4.11517e-06
-4.11517e-06
-4.11517e-06
-4.11517e-06
-4.11517e-06
-4.11517e-06
-4.11517e-06
-4.11517e-06
-4.11517e-06
-4.11517e-06
-4.11517e-06
-4.11517e-06
-4.11517e-06
-4.11517e-06
-4.11517e-06
-4.11517e-06
-4.11517e-06
-4.11517e-06
-4.11517e-06
-4.11517e-06
-4.11517e-06
-4.11517e-06
-4.11517e-06
-4.11517e-06
-4.11517e-06
-4.11517e-06
-4.11517e-06
-4.11517e-06
-4.11517e-06
-4.11517e-06
-4.11517e-06
-4.11517e-06
-4.11517e-06
-4.11517e-06
-4.11517e-06
-4.11517e-06
-4.11517e-06
-4.11517e-06
-4.11517e-06
-4.11517e-06
-4.11517e-06
-4.11517e-06
-4.11517e-06
-4.11517e-06
-4.11516e-06
-4.11516e-06
-4.11516e-06
-4.11517e-06
-4.11517e-06
-4.11517e-06
-4.11517e-06
-4.11517e-06
-4.11517e-06
-4.11517e-06
-4.11517e-06
-4.11517e-06
-4.11517e-06
-4.11517e-06
-4.11517e-06
-4.11517e-06
-4.11517e-06
-4.11517e-06
-4.11517e-06
-4.11517e-06
-4.11517e-06
-4.11517e-06
-4.11517e-06
-4.11517e-06
-4.11517e-06
-4.11516e-06
-4.11517e-06
-4.11517e-06
-4.11517e-06
-4.11517e-06
-4.11517e-06
-4.11517e-06
-4.11517e-06
-4.11517e-06
-4.11517e-06
-4.11516e-06
-4.11516e-06
-4.11516e-06
-4.11516e-06
-4.11516e-06
-4.11516e-06
-4.11516e-06
-4.11516e-06
-4.11516e-06
-4.11516e-06
-4.11516e-06
-4.11516e-06
-4.11516e-06
-4.11516e-06
-4.11516e-06
-4.11516e-06
-4.11516e-06
-4.11516e-06
-4.11516e-06
-4.11516e-06
-4.11516e-06
-4.11516e-06
-4.11516e-06
-4.11516e-06
-4.11516e-06
-4.11516e-06
-4.11516e-06
-4.11516e-06
-4.11516e-06
-4.11516e-06
-4.11516e-06
-4.11516e-06
-4.11516e-06
-4.11516e-06
-4.11516e-06
-4.11516e-06
-4.11516e-06
-4.11516e-06
-4.11516e-06
-4.11516e-06
-4.11516e-06
-4.11516e-06
-4.11517e-06
-4.11517e-06
-4.11517e-06
-4.11517e-06
-4.11517e-06
-4.11518e-06
-4.11518e-06
-4.11518e-06
-4.11518e-06
-4.11519e-06
-4.11519e-06
-4.11519e-06
-4.1152e-06
-4.1152e-06
-4.11521e-06
-4.11521e-06
-4.11521e-06
-4.11522e-06
-4.11523e-06
-4.11523e-06
-4.11524e-06
-4.11525e-06
-4.11526e-06
-4.11526e-06
-4.11527e-06
-4.11528e-06
-4.11529e-06
-4.11531e-06
-4.11532e-06
-4.11533e-06
-4.11535e-06
-4.11536e-06
-4.11538e-06
-4.1154e-06
-4.11542e-06
-4.11544e-06
-4.11546e-06
-4.11548e-06
-4.11551e-06
-4.11554e-06
-4.11556e-06
-4.11559e-06
-4.11563e-06
-4.11566e-06
-4.1157e-06
-4.11574e-06
-4.11578e-06
-4.11582e-06
-4.11587e-06
-4.11592e-06
-4.11597e-06
-4.11603e-06
-4.11609e-06
-4.11616e-06
-4.11623e-06
-4.1163e-06
-4.11638e-06
-4.11646e-06
-4.11654e-06
-4.11664e-06
-4.11674e-06
-4.11684e-06
-4.11695e-06
-4.11707e-06
-4.1172e-06
-4.11733e-06
-4.11747e-06
-4.11762e-06
-4.11778e-06
-4.11795e-06
-4.11813e-06
-4.11831e-06
-4.11851e-06
-4.11873e-06
-4.11895e-06
-4.11918e-06
-4.11943e-06
-4.1197e-06
-4.11998e-06
-4.12027e-06
-4.12058e-06
-4.12091e-06
-4.12126e-06
-4.12163e-06
-4.12201e-06
-4.12242e-06
-4.12285e-06
-4.12331e-06
-4.12379e-06
-4.12429e-06
-4.12482e-06
-4.12538e-06
-4.12597e-06
-4.1266e-06
-4.12725e-06
-4.12794e-06
-4.12867e-06
-4.12943e-06
-4.13023e-06
-4.13108e-06
-4.13196e-06
-4.13289e-06
-4.13387e-06
-4.1349e-06
-4.13598e-06
-4.13711e-06
-4.1383e-06
-4.13954e-06
-4.14085e-06
-4.14222e-06
-4.14366e-06
-4.14516e-06
-4.14674e-06
-4.14839e-06
-4.15012e-06
-4.15193e-06
-4.15382e-06
-4.1558e-06
-4.15787e-06
-4.16004e-06
-4.1623e-06
-4.16467e-06
-4.16714e-06
-4.16972e-06
-4.17242e-06
-4.17523e-06
-4.17817e-06
-4.18123e-06
-4.18443e-06
-4.18776e-06
-4.19123e-06
-4.19485e-06
-4.19862e-06
-4.20255e-06
-4.20664e-06
-4.2109e-06
-4.21533e-06
-4.21994e-06
-4.22474e-06
-4.22972e-06
-4.23491e-06
-4.2403e-06
-4.2459e-06
-4.25172e-06
-4.25775e-06
-4.26403e-06
-4.27053e-06
-4.27729e-06
-4.28429e-06
-4.29156e-06
-4.29909e-06
-4.3069e-06
-4.31499e-06
-4.32338e-06
-4.33206e-06
-4.34105e-06
-4.35035e-06
-4.35998e-06
-4.36995e-06
-4.38026e-06
-4.39091e-06
-4.40193e-06
-4.41332e-06
-4.42509e-06
-4.43725e-06
-4.4498e-06
-4.46277e-06
-4.47615e-06
-4.48996e-06
-4.50421e-06
-4.51891e-06
-4.53407e-06
-4.54969e-06
-4.5658e-06
-4.5824e-06
-4.5995e-06
-4.61711e-06
-4.63525e-06
-4.65393e-06
-4.67315e-06
-4.69292e-06
-4.71327e-06
-4.7342e-06
-4.75572e-06
-4.77784e-06
-4.80058e-06
-4.82395e-06
-4.84796e-06
-4.87262e-06
-4.89795e-06
-4.92396e-06
-4.95065e-06
-4.97805e-06
-5.00616e-06
-5.03499e-06
-5.06457e-06
-5.0949e-06
-5.126e-06
-5.15787e-06
-5.19053e-06
-5.224e-06
-5.25829e-06
-5.29341e-06
-5.32938e-06
-5.3662e-06
-5.40389e-06
-5.44247e-06
-5.48194e-06
-5.52233e-06
-5.56365e-06
-5.6059e-06
-5.64911e-06
-5.69328e-06
-5.73844e-06
-5.7846e-06
-5.83176e-06
-5.87995e-06
-5.92918e-06
-5.97947e-06
-6.03083e-06
-6.08327e-06
-6.13681e-06
-6.19146e-06
-6.24725e-06
-6.30418e-06
-6.36228e-06
-6.42155e-06
-6.48202e-06
-6.54369e-06
-6.60659e-06
-6.67074e-06
-6.73615e-06
-6.80283e-06
-6.87081e-06
-6.9401e-06
-7.01073e-06
-7.0827e-06
-7.15605e-06
-7.23077e-06
-7.30691e-06
-7.38447e-06
-7.46348e-06
-7.54396e-06
-7.62593e-06
-7.7094e-06
-7.79441e-06
-7.88098e-06
-7.96913e-06
-8.05888e-06
-8.15026e-06
-8.24329e-06
-8.338e-06
-8.43442e-06
-8.53257e-06
-8.63249e-06
-8.7342e-06
-8.83774e-06
-8.94313e-06
-9.05041e-06
-9.15962e-06
-9.27079e-06
-9.38396e-06
-9.49918e-06
-9.61649e-06
-9.73594e-06
-9.85759e-06
-9.98149e-06
-1.01077e-05
-1.02363e-05
-1.03673e-05
-1.04994e-05
-1.06339e-05
-1.07711e-05
-1.09109e-05
-1.10533e-05
-1.11985e-05
-1.13464e-05
-1.14971e-05
-1.16505e-05
-1.18069e-05
-1.19661e-05
-1.21283e-05
-1.22934e-05
-1.24615e-05
-1.26326e-05
-1.28068e-05
-1.2984e-05
-1.31643e-05
-1.33477e-05
-1.3534e-05
-1.37234e-05
-1.39156e-05
-1.41107e-05
-1.43084e-05
-1.45086e-05
-1.4711e-05
-1.49154e-05
-1.51214e-05
-1.53286e-05
-1.55364e-05
-1.57443e-05
-1.59513e-05
-1.61566e-05
-1.63591e-05
-1.65575e-05
-1.67502e-05
-1.69355e-05
-1.71113e-05
-1.7275e-05
-1.74241e-05
-1.75551e-05
-1.76646e-05
-1.77485e-05
-1.78023e-05
)
;

boundaryField
{
    fixedWall
    {
        type            calculated;
        value           uniform 0;
    }
    outlet
    {
        type            calculated;
        value           uniform -1.78213e-05;
    }
    defaultFaces
    {
        type            empty;
    }
}


// ************************************************************************* //
