/*--------------------------------*- C++ -*----------------------------------*\
| =========                 |                                                 |
| \\      /  F ield         | OpenFOAM: The Open Source CFD Toolbox           |
|  \\    /   O peration     | Version:  2406                                  |
|   \\  /    A nd           | Website:  www.openfoam.com                      |
|    \\/     M anipulation  |                                                 |
\*---------------------------------------------------------------------------*/
FoamFile
{
    version     2.0;
    format      ascii;
    arch        "LSB;label=32;scalar=64";
    class       volScalarField;
    location    "14.6";
    object      Qdot;
}
// * * * * * * * * * * * * * * * * * * * * * * * * * * * * * * * * * * * * * //

dimensions      [1 -1 -3 0 0 0 0];

internalField   nonuniform List<scalar> 
1000
(
-6.14856e-19
-4.98512e-14
-1.05587e-16
-7.48838e-16
3.80442e-09
7.60884e-09
2.5259e-08
9.20319e-08
2.43869e-07
6.01548e-07
1.34739e-06
2.81325e-06
5.48885e-06
1.01276e-05
1.77563e-05
2.97891e-05
4.80466e-05
7.47849e-05
0.000112767
0.000165232
0.000235907
0.000328941
0.000448884
0.000600583
0.000789111
0.00101964
0.00129734
0.00162726
0.00201418
0.00246251
0.00297621
0.0035586
0.00421236
0.0049394
0.00574084
0.00661693
0.00756706
0.00858975
0.00968265
0.0108426
0.0120657
0.0133471
0.0146818
0.0160636
0.0174864
0.0189433
0.0204273
0.0219312
0.0234476
0.0249692
0.0264888
0.0279992
0.0294935
0.0309652
0.032408
0.0338163
0.0351844
0.0365077
0.0377818
0.0390026
0.0401671
0.0412722
0.0423158
0.0432962
0.0442119
0.0450622
0.0458468
0.0465658
0.0472195
0.0478088
0.0483348
0.0487989
0.0492029
0.0495486
0.0498382
0.0500738
0.0502579
0.0503929
0.0504815
0.0505263
0.0505298
0.0504948
0.0504239
0.0503197
0.0501849
0.0500218
0.0498331
0.049621
0.0493878
0.0491359
0.0488673
0.048584
0.048288
0.047981
0.0476649
0.0473411
0.0470113
0.0466769
0.0463391
0.0459992
0.0456583
0.0453175
0.0449778
0.0446399
0.0443047
0.043973
0.0436454
0.0433224
0.0430045
0.0426924
0.0423862
0.0420865
0.0417935
0.0415074
0.0412286
0.0409571
0.040693
0.0404366
0.0401879
0.0399469
0.0397137
0.0394883
0.0392705
0.0390605
0.0388581
0.0386633
0.038476
0.0382961
0.0381234
0.0379579
0.0377994
0.0376478
0.037503
0.0373648
0.037233
0.0371075
0.0369882
0.0368749
0.0367673
0.0366655
0.0365692
0.0364782
0.0363924
0.0363116
0.0362357
0.0361645
0.0360979
0.0360357
0.0359777
0.0359239
0.035874
0.0358279
0.0357855
0.0357467
0.0357113
0.0356791
0.0356502
0.0356243
0.0356012
0.035581
0.0355635
0.0355486
0.0355362
0.0355261
0.0355183
0.0355126
0.0355091
0.0355075
0.0355078
0.03551
0.0355139
0.0355194
0.0355266
0.0355353
0.0355454
0.0355569
0.0355696
0.0355837
0.0355989
0.0356153
0.0356327
0.0356512
0.0356706
0.035691
0.0357123
0.0357343
0.0357572
0.0357808
0.0358052
0.0358302
0.0358559
0.0358821
0.035909
0.0359364
0.0359644
0.0359927
0.0360215
0.0360509
0.0360807
0.0361108
0.0361412
0.0361721
0.0362034
0.0362348
0.0362665
0.0362987
0.036331
0.0363635
0.0363963
0.0364294
0.0364626
0.0364961
0.0365298
0.0365637
0.0365977
0.0366319
0.0366662
0.0367007
0.0367353
0.03677
0.0368049
0.0368398
0.0368749
0.0369101
0.0369453
0.0369807
0.037016
0.0370515
0.0370871
0.0371228
0.0371586
0.0371944
0.0372303
0.0372662
0.0373022
0.0373382
0.0373742
0.0374104
0.0374465
0.0374828
0.037519
0.0375552
0.0375917
0.0376282
0.0376646
0.0377012
0.0377377
0.0377743
0.037811
0.0378477
0.0378844
0.0379211
0.0379579
0.0379948
0.0380316
0.0380686
0.0381055
0.0381425
0.0381795
0.0382165
0.0382536
0.0382907
0.0383279
0.0383651
0.0384023
0.0384396
0.0384769
0.0385141
0.0385515
0.038589
0.0386264
0.0386638
0.0387013
0.0387389
0.0387765
0.0388142
0.0388518
0.0388895
0.0389273
0.0389651
0.0390029
0.0390408
0.0390787
0.0391166
0.0391546
0.0391926
0.0392307
0.0392688
0.0393069
0.0393451
0.0393834
0.0394217
0.03946
0.0394984
0.0395368
0.0395752
0.0396137
0.0396523
0.0396909
0.0397295
0.0397682
0.039807
0.0398458
0.0398846
0.0399235
0.0399625
0.0400013
0.0400403
0.0400794
0.0401185
0.0401577
0.040197
0.0402362
0.0402756
0.0403149
0.0403543
0.0403938
0.0404333
0.0404729
0.0405125
0.0405522
0.0405919
0.0406317
0.0406716
0.0407115
0.0407514
0.0407914
0.0408315
0.0408716
0.0409118
0.040952
0.0409923
0.0410327
0.0410729
0.0411133
0.0411538
0.0411944
0.0412349
0.0412756
0.0413163
0.0413571
0.041398
0.0414389
0.0414798
0.0415209
0.0415618
0.041603
0.0416442
0.0416854
0.0417267
0.0417681
0.0418095
0.041851
0.0418926
0.0419342
0.0419759
0.0420177
0.0420595
0.0421014
0.0421431
0.0421851
0.0422272
0.0422693
0.0423115
0.0423537
0.042396
0.0424384
0.0424808
0.0425233
0.0425658
0.0426085
0.0426511
0.0426939
0.0427367
0.0427796
0.0428225
0.0428655
0.0429086
0.0429516
0.0429948
0.0430381
0.0430814
0.0431249
0.0431683
0.0432119
0.0432555
0.043299
0.0433427
0.0433865
0.0434304
0.0434743
0.0435183
0.0435624
0.0436065
0.0436507
0.043695
0.0437393
0.0437837
0.0438282
0.0438727
0.0439173
0.043962
0.0440068
0.0440516
0.0440964
0.0441414
0.0441864
0.0442315
0.0442767
0.0443219
0.0443672
0.0444125
0.044458
0.0445035
0.0445491
0.0445947
0.0446404
0.0446862
0.044732
0.044778
0.044824
0.04487
0.0449162
0.0449624
0.0450087
0.0450551
0.0451015
0.045148
0.0451946
0.0452412
0.0452879
0.0453347
0.0453815
0.0454284
0.0454754
0.0455225
0.0455697
0.0456169
0.0456642
0.0457116
0.0457591
0.0458066
0.0458542
0.0459019
0.0459496
0.0459975
0.0460452
0.0460932
0.0461412
0.0461894
0.0462376
0.0462859
0.0463342
0.0463826
0.0464311
0.0464797
0.0465283
0.0465771
0.0466258
0.0466747
0.0467237
0.0467727
0.0468218
0.046871
0.0469202
0.0469696
0.047019
0.0470685
0.0471181
0.0471677
0.0472175
0.0472673
0.0473172
0.0473671
0.0474172
0.0474673
0.0475175
0.0475678
0.0476182
0.0476686
0.0477192
0.0477698
0.0478205
0.0478713
0.0479221
0.0479729
0.0480239
0.048075
0.0481262
0.0481775
0.0482289
0.0482803
0.0483318
0.0483834
0.0484349
0.0484867
0.0485386
0.0485905
0.0486425
0.0486946
0.0487468
0.048799
0.0488514
0.0489038
0.0489564
0.0490088
0.0490615
0.0491142
0.0491671
0.04922
0.0492731
0.0493262
0.0493794
0.0494326
0.049486
0.0495395
0.0495929
0.0496465
0.0497002
0.049754
0.0498079
0.0498619
0.0499159
0.0499701
0.0500244
0.0500785
0.0501329
0.0501874
0.050242
0.0502967
0.0503514
0.0504063
0.0504612
0.0505163
0.0505714
0.0506266
0.0506819
0.0507372
0.0507927
0.0508483
0.0509039
0.0509597
0.0510155
0.0510714
0.0511274
0.0511835
0.0512397
0.051296
0.0513524
0.0514089
0.0514655
0.0515221
0.0515789
0.0516357
0.0516927
0.0517497
0.0518068
0.0518641
0.0519214
0.0519788
0.0520363
0.0520939
0.0521516
0.0522094
0.0522673
0.0523253
0.0523834
0.0524416
0.0524998
0.0525582
0.0526167
0.0526753
0.0527339
0.0527927
0.0528516
0.0529105
0.0529696
0.0530288
0.053088
0.0531474
0.0532068
0.0532664
0.0533261
0.0533858
0.0534457
0.0535056
0.0535657
0.0536259
0.0536861
0.0537465
0.053807
0.0538676
0.0539282
0.053989
0.0540499
0.0541109
0.054172
0.0542332
0.0542944
0.0543559
0.0544174
0.054479
0.0545407
0.0546025
0.0546644
0.0547265
0.0547886
0.0548508
0.0549132
0.0549756
0.0550382
0.0551009
0.0551637
0.0552265
0.0552895
0.0553526
0.0554159
0.0554792
0.0555426
0.0556061
0.0556698
0.0557336
0.0557974
0.0558614
0.0559255
0.0559897
0.056054
0.0561184
0.056183
0.0562476
0.0563124
0.0563772
0.0564422
0.0565073
0.0565725
0.0566378
0.0567033
0.0567688
0.0568345
0.0569002
0.0569661
0.0570321
0.0570983
0.0571645
0.0572308
0.0572973
0.0573639
0.0574306
0.0574974
0.0575643
0.0576314
0.0576986
0.0577659
0.0578333
0.0579008
0.0579684
0.0580362
0.0581041
0.0581721
0.0582402
0.0583085
0.0583768
0.0584453
0.0585135
0.0585822
0.0586511
0.05872
0.0587891
0.0588582
0.0589275
0.058997
0.0590665
0.0591362
0.059206
0.0592759
0.0593459
0.0594161
0.0594864
0.0595568
0.0596274
0.059698
0.0597684
0.0598393
0.0599103
0.0599814
0.0600527
0.060124
0.0601955
0.0602672
0.0603389
0.0604108
0.0604828
0.0605549
0.0606272
0.0606995
0.060772
0.0608447
0.0609174
0.0609903
0.0610633
0.0611365
0.0612098
0.0612832
0.0613567
0.0614304
0.0615041
0.0615781
0.0616521
0.0617263
0.0618006
0.061875
0.0619496
0.0620243
0.0620992
0.0621741
0.0622492
0.0623244
0.0623998
0.0624753
0.0625509
0.0626267
0.0627026
0.0627786
0.0628548
0.062931
0.0630075
0.063084
0.0631607
0.0632375
0.0633145
0.0633916
0.0634688
0.0635461
0.0636236
0.0637013
0.063779
0.0638569
0.0639349
0.0640131
0.0640914
0.0641698
0.0642484
0.0643271
0.0644059
0.0644849
0.064564
0.0646432
0.0647226
0.0648021
0.0648818
0.0649616
0.0650415
0.0651216
0.0652018
0.0652821
0.0653626
0.0654433
0.0655241
0.065605
0.0656861
0.0657674
0.0658488
0.0659304
0.0660121
0.066094
0.0661761
0.0662583
0.0663408
0.0664234
0.0665062
0.0665892
0.0666724
0.0667559
0.0668395
0.0669234
0.0670076
0.067092
0.0671767
0.0672617
0.0673469
0.0674325
0.0675184
0.0676047
0.0676914
0.0677784
0.0678659
0.0679538
0.0680422
0.0681311
0.0682206
0.0683106
0.0684012
0.0684925
0.0685845
0.0686772
0.0687708
0.0688652
0.0689605
0.0690567
0.0691541
0.0692525
0.0693521
0.0694529
0.0695551
0.0696588
0.0697639
0.0698708
0.0699793
0.0700897
0.0702022
0.0703167
0.0704335
0.0705527
0.0706744
0.0707989
0.0709262
0.0710566
0.0711903
0.0713275
0.0714684
0.0716132
0.0717621
0.0719154
0.0720734
0.0722364
0.0724046
0.0725784
0.072758
0.0729438
0.0731362
0.0733355
0.0735421
0.0737565
0.073979
0.07421
0.0744502
0.0746998
0.0749595
0.0752297
0.0755111
0.075804
0.0761092
0.0764273
0.0767589
0.0771045
0.077465
0.077841
0.0782332
0.0786424
0.0790693
0.0795148
0.0799796
0.0804646
0.0809706
0.0814986
0.0820493
0.0826238
0.083223
0.0838478
0.0844992
0.0851782
0.0858857
0.0866228
0.0873905
0.0881898
0.0890217
0.0898872
0.0907873
0.0917229
0.0926951
0.0937048
0.0947529
0.0958402
0.0969676
0.0981358
0.0993455
0.100597
0.101892
0.103229
0.104611
0.106035
0.107503
0.109015
0.11057
0.112168
0.113808
0.115489
0.11721
0.118969
0.120766
0.122596
0.124459
0.126352
0.12827
0.130211
0.13217
0.134143
0.136124
0.138109
0.14009
0.142061
0.144015
0.145944
0.14784
0.149692
0.151492
0.153228
0.154891
0.156468
0.157947
0.159316
0.160562
0.161671
0.162629
0.163424
0.164039
0.164463
0.164679
0.164676
0.164439
0.163955
0.163214
0.162203
0.160913
0.159336
0.157464
0.155293
0.152819
0.150042
0.146962
0.143583
0.139913
0.13596
0.131736
0.127257
0.12254
0.117606
0.112479
0.107184
0.101751
0.0962087
0.0905902
0.0849288
0.079259
0.0736156
0.0680336
0.0625472
0.0571895
0.051992
0.0469839
0.0421919
0.0376394
0.0333463
0.0293289
0.025599
0.0221791
0.0190692
0.0162285
0.0136823
0.0114224
0.00943685
0.00771109
0.00622796
0.00496842
0.00391212
0.00303795
0.00232458
0.00175106
0.0012972
0.000944027
0.00067408
0.000471651
0.000322921
0.000216005
0.000140925
8.95081e-05
5.52338e-05
3.30421e-05
1.9114e-05
1.06644e-05
5.72031e-06
2.94177e-06
1.44451e-06
6.74819e-07
2.98882e-07
1.25484e-07
4.87326e-08
1.82036e-08
5.53524e-09
1.90211e-09
3.44447e-10
-2.37777e-10
-6.0717e-17
-9.96936e-14
-1.94239e-18
-2.65506e-19
1.61761e-10
0
0
2.02202e-11
)
;

boundaryField
{
    fixedWall
    {
        type            calculated;
        value           uniform 0;
    }
    outlet
    {
        type            calculated;
        value           uniform 0;
    }
    defaultFaces
    {
        type            empty;
    }
}


// ************************************************************************* //
