/*--------------------------------*- C++ -*----------------------------------*\
| =========                 |                                                 |
| \\      /  F ield         | OpenFOAM: The Open Source CFD Toolbox           |
|  \\    /   O peration     | Version:  2406                                  |
|   \\  /    A nd           | Website:  www.openfoam.com                      |
|    \\/     M anipulation  |                                                 |
\*---------------------------------------------------------------------------*/
FoamFile
{
    version     2.0;
    format      ascii;
    arch        "LSB;label=32;scalar=64";
    class       surfaceScalarField;
    location    "7.3";
    object      phi;
}
// * * * * * * * * * * * * * * * * * * * * * * * * * * * * * * * * * * * * * //

dimensions      [1 0 -1 0 0 0 0];

oriented        oriented;

internalField   nonuniform List<scalar> 
999
(
-2.96739e-08
-9.59753e-08
-1.83366e-07
-2.83222e-07
-3.90454e-07
-5.01904e-07
-6.1554e-07
-7.30035e-07
-8.44488e-07
-9.58295e-07
-1.07104e-06
-1.18243e-06
-1.29229e-06
-1.40046e-06
-1.50688e-06
-1.61149e-06
-1.71426e-06
-1.81517e-06
-1.91423e-06
-2.01144e-06
-2.10682e-06
-2.20039e-06
-2.29217e-06
-2.38218e-06
-2.47045e-06
-2.55701e-06
-2.64188e-06
-2.72509e-06
-2.80667e-06
-2.88663e-06
-2.96502e-06
-3.04185e-06
-3.11714e-06
-3.19093e-06
-3.26324e-06
-3.33408e-06
-3.40349e-06
-3.47147e-06
-3.53807e-06
-3.60329e-06
-3.66715e-06
-3.72968e-06
-3.7909e-06
-3.85083e-06
-3.90948e-06
-3.96687e-06
-4.02302e-06
-4.07795e-06
-4.13168e-06
-4.18422e-06
-4.23559e-06
-4.28581e-06
-4.33489e-06
-4.38285e-06
-4.42971e-06
-4.47548e-06
-4.52018e-06
-4.56382e-06
-4.60642e-06
-4.648e-06
-4.68857e-06
-4.72814e-06
-4.76674e-06
-4.80437e-06
-4.84106e-06
-4.8768e-06
-4.91163e-06
-4.94556e-06
-4.9786e-06
-5.01076e-06
-5.04206e-06
-5.07252e-06
-5.10214e-06
-5.13095e-06
-5.15896e-06
-5.18618e-06
-5.21263e-06
-5.23833e-06
-5.26327e-06
-5.28749e-06
-5.31099e-06
-5.33379e-06
-5.35591e-06
-5.37735e-06
-5.39812e-06
-5.41826e-06
-5.43776e-06
-5.45664e-06
-5.47492e-06
-5.49261e-06
-5.50972e-06
-5.52627e-06
-5.54226e-06
-5.55772e-06
-5.57265e-06
-5.58707e-06
-5.60099e-06
-5.61442e-06
-5.62738e-06
-5.63987e-06
-5.65192e-06
-5.66353e-06
-5.67471e-06
-5.68547e-06
-5.69584e-06
-5.70581e-06
-5.7154e-06
-5.72463e-06
-5.7335e-06
-5.74201e-06
-5.7502e-06
-5.75805e-06
-5.76559e-06
-5.77283e-06
-5.77976e-06
-5.78641e-06
-5.79278e-06
-5.79889e-06
-5.80473e-06
-5.81032e-06
-5.81567e-06
-5.82078e-06
-5.82567e-06
-5.83033e-06
-5.83478e-06
-5.83902e-06
-5.84309e-06
-5.84697e-06
-5.8507e-06
-5.85424e-06
-5.85762e-06
-5.86084e-06
-5.86391e-06
-5.86682e-06
-5.86959e-06
-5.87223e-06
-5.87474e-06
-5.87712e-06
-5.87939e-06
-5.88154e-06
-5.88358e-06
-5.88552e-06
-5.88735e-06
-5.8891e-06
-5.89075e-06
-5.89232e-06
-5.8938e-06
-5.8952e-06
-5.89653e-06
-5.89779e-06
-5.89898e-06
-5.9001e-06
-5.90117e-06
-5.90217e-06
-5.90312e-06
-5.90401e-06
-5.90486e-06
-5.90566e-06
-5.90641e-06
-5.90712e-06
-5.90778e-06
-5.90841e-06
-5.909e-06
-5.90956e-06
-5.91008e-06
-5.91058e-06
-5.91104e-06
-5.91148e-06
-5.91189e-06
-5.91227e-06
-5.91264e-06
-5.91297e-06
-5.91329e-06
-5.91359e-06
-5.91387e-06
-5.91414e-06
-5.91438e-06
-5.91462e-06
-5.91483e-06
-5.91504e-06
-5.91523e-06
-5.9154e-06
-5.91557e-06
-5.91573e-06
-5.91587e-06
-5.91601e-06
-5.91614e-06
-5.91626e-06
-5.91637e-06
-5.91648e-06
-5.91657e-06
-5.91666e-06
-5.91675e-06
-5.91683e-06
-5.91691e-06
-5.91698e-06
-5.91704e-06
-5.9171e-06
-5.91716e-06
-5.91721e-06
-5.91726e-06
-5.91731e-06
-5.91736e-06
-5.9174e-06
-5.91744e-06
-5.91747e-06
-5.91751e-06
-5.91754e-06
-5.91756e-06
-5.91759e-06
-5.91762e-06
-5.91764e-06
-5.91766e-06
-5.91768e-06
-5.9177e-06
-5.91772e-06
-5.91774e-06
-5.91775e-06
-5.91777e-06
-5.91778e-06
-5.91779e-06
-5.9178e-06
-5.91781e-06
-5.91782e-06
-5.91783e-06
-5.91784e-06
-5.91784e-06
-5.91785e-06
-5.91786e-06
-5.91786e-06
-5.91787e-06
-5.91787e-06
-5.91787e-06
-5.91788e-06
-5.91788e-06
-5.91788e-06
-5.91788e-06
-5.91788e-06
-5.91788e-06
-5.91788e-06
-5.91788e-06
-5.91788e-06
-5.91788e-06
-5.91788e-06
-5.91788e-06
-5.91787e-06
-5.91787e-06
-5.91787e-06
-5.91786e-06
-5.91786e-06
-5.91786e-06
-5.91785e-06
-5.91785e-06
-5.91784e-06
-5.91784e-06
-5.91783e-06
-5.91783e-06
-5.91782e-06
-5.91781e-06
-5.91781e-06
-5.9178e-06
-5.9178e-06
-5.91779e-06
-5.91778e-06
-5.91777e-06
-5.91777e-06
-5.91776e-06
-5.91775e-06
-5.91774e-06
-5.91773e-06
-5.91772e-06
-5.91771e-06
-5.9177e-06
-5.91769e-06
-5.91769e-06
-5.91768e-06
-5.91767e-06
-5.91766e-06
-5.91765e-06
-5.91764e-06
-5.91763e-06
-5.91762e-06
-5.9176e-06
-5.91759e-06
-5.91758e-06
-5.91757e-06
-5.91756e-06
-5.91755e-06
-5.91754e-06
-5.91753e-06
-5.91752e-06
-5.9175e-06
-5.91749e-06
-5.91748e-06
-5.91747e-06
-5.91746e-06
-5.91745e-06
-5.91744e-06
-5.91742e-06
-5.91741e-06
-5.9174e-06
-5.91739e-06
-5.91738e-06
-5.91737e-06
-5.91735e-06
-5.91734e-06
-5.91733e-06
-5.91732e-06
-5.91731e-06
-5.9173e-06
-5.91729e-06
-5.91728e-06
-5.91726e-06
-5.91725e-06
-5.91724e-06
-5.91723e-06
-5.91722e-06
-5.91721e-06
-5.9172e-06
-5.91719e-06
-5.91718e-06
-5.91717e-06
-5.91716e-06
-5.91715e-06
-5.91714e-06
-5.91713e-06
-5.91712e-06
-5.91711e-06
-5.9171e-06
-5.9171e-06
-5.91709e-06
-5.91708e-06
-5.91707e-06
-5.91706e-06
-5.91705e-06
-5.91705e-06
-5.91704e-06
-5.91703e-06
-5.91702e-06
-5.91702e-06
-5.91701e-06
-5.91701e-06
-5.917e-06
-5.91699e-06
-5.91699e-06
-5.91698e-06
-5.91698e-06
-5.91697e-06
-5.91697e-06
-5.91697e-06
-5.91696e-06
-5.91696e-06
-5.91695e-06
-5.91695e-06
-5.91695e-06
-5.91695e-06
-5.91695e-06
-5.91695e-06
-5.91695e-06
-5.91694e-06
-5.91694e-06
-5.91694e-06
-5.91694e-06
-5.91694e-06
-5.91694e-06
-5.91695e-06
-5.91695e-06
-5.91695e-06
-5.91695e-06
-5.91695e-06
-5.91695e-06
-5.91695e-06
-5.91696e-06
-5.91696e-06
-5.91696e-06
-5.91697e-06
-5.91697e-06
-5.91697e-06
-5.91698e-06
-5.91698e-06
-5.91698e-06
-5.91699e-06
-5.91699e-06
-5.91699e-06
-5.917e-06
-5.917e-06
-5.91701e-06
-5.91701e-06
-5.91702e-06
-5.91702e-06
-5.91703e-06
-5.91703e-06
-5.91704e-06
-5.91704e-06
-5.91704e-06
-5.91705e-06
-5.91705e-06
-5.91706e-06
-5.91706e-06
-5.91706e-06
-5.91707e-06
-5.91707e-06
-5.91708e-06
-5.91708e-06
-5.91708e-06
-5.91708e-06
-5.91709e-06
-5.91709e-06
-5.91709e-06
-5.91709e-06
-5.9171e-06
-5.9171e-06
-5.9171e-06
-5.9171e-06
-5.9171e-06
-5.9171e-06
-5.9171e-06
-5.9171e-06
-5.9171e-06
-5.9171e-06
-5.9171e-06
-5.9171e-06
-5.9171e-06
-5.9171e-06
-5.9171e-06
-5.9171e-06
-5.9171e-06
-5.9171e-06
-5.91709e-06
-5.91709e-06
-5.91709e-06
-5.91709e-06
-5.91708e-06
-5.91708e-06
-5.91708e-06
-5.91708e-06
-5.91707e-06
-5.91707e-06
-5.91707e-06
-5.91706e-06
-5.91706e-06
-5.91706e-06
-5.91705e-06
-5.91705e-06
-5.91704e-06
-5.91704e-06
-5.91704e-06
-5.91703e-06
-5.91703e-06
-5.91702e-06
-5.91702e-06
-5.91701e-06
-5.91701e-06
-5.91701e-06
-5.917e-06
-5.917e-06
-5.91699e-06
-5.91699e-06
-5.91699e-06
-5.91698e-06
-5.91698e-06
-5.91697e-06
-5.91697e-06
-5.91697e-06
-5.91696e-06
-5.91696e-06
-5.91696e-06
-5.91695e-06
-5.91695e-06
-5.91695e-06
-5.91695e-06
-5.91694e-06
-5.91694e-06
-5.91694e-06
-5.91694e-06
-5.91693e-06
-5.91693e-06
-5.91693e-06
-5.91693e-06
-5.91693e-06
-5.91692e-06
-5.91692e-06
-5.91692e-06
-5.91692e-06
-5.91692e-06
-5.91692e-06
-5.91692e-06
-5.91692e-06
-5.91691e-06
-5.91691e-06
-5.91691e-06
-5.91691e-06
-5.91691e-06
-5.91691e-06
-5.91691e-06
-5.91691e-06
-5.91691e-06
-5.91691e-06
-5.91691e-06
-5.91691e-06
-5.91692e-06
-5.91692e-06
-5.91692e-06
-5.91692e-06
-5.91692e-06
-5.91692e-06
-5.91692e-06
-5.91692e-06
-5.91692e-06
-5.91692e-06
-5.91692e-06
-5.91692e-06
-5.91692e-06
-5.91692e-06
-5.91693e-06
-5.91693e-06
-5.91693e-06
-5.91693e-06
-5.91693e-06
-5.91693e-06
-5.91693e-06
-5.91693e-06
-5.91693e-06
-5.91693e-06
-5.91693e-06
-5.91693e-06
-5.91693e-06
-5.91693e-06
-5.91693e-06
-5.91693e-06
-5.91693e-06
-5.91693e-06
-5.91693e-06
-5.91693e-06
-5.91693e-06
-5.91693e-06
-5.91693e-06
-5.91693e-06
-5.91693e-06
-5.91693e-06
-5.91693e-06
-5.91693e-06
-5.91693e-06
-5.91692e-06
-5.91692e-06
-5.91692e-06
-5.91692e-06
-5.91691e-06
-5.91691e-06
-5.91691e-06
-5.91691e-06
-5.9169e-06
-5.9169e-06
-5.91689e-06
-5.91689e-06
-5.91688e-06
-5.91688e-06
-5.91688e-06
-5.91687e-06
-5.91686e-06
-5.91686e-06
-5.91685e-06
-5.91685e-06
-5.91684e-06
-5.91684e-06
-5.91683e-06
-5.91682e-06
-5.91682e-06
-5.91681e-06
-5.9168e-06
-5.9168e-06
-5.91679e-06
-5.91678e-06
-5.91677e-06
-5.91677e-06
-5.91676e-06
-5.91675e-06
-5.91674e-06
-5.91674e-06
-5.91673e-06
-5.91672e-06
-5.91672e-06
-5.91671e-06
-5.9167e-06
-5.9167e-06
-5.91669e-06
-5.91668e-06
-5.91668e-06
-5.91667e-06
-5.91667e-06
-5.91666e-06
-5.91666e-06
-5.91665e-06
-5.91665e-06
-5.91664e-06
-5.91664e-06
-5.91664e-06
-5.91663e-06
-5.91663e-06
-5.91662e-06
-5.91662e-06
-5.91662e-06
-5.91662e-06
-5.91662e-06
-5.91661e-06
-5.91661e-06
-5.91661e-06
-5.91661e-06
-5.91661e-06
-5.91661e-06
-5.91661e-06
-5.91661e-06
-5.91661e-06
-5.91661e-06
-5.91661e-06
-5.91661e-06
-5.91662e-06
-5.91662e-06
-5.91662e-06
-5.91662e-06
-5.91662e-06
-5.91662e-06
-5.91663e-06
-5.91663e-06
-5.91663e-06
-5.91663e-06
-5.91663e-06
-5.91664e-06
-5.91664e-06
-5.91664e-06
-5.91664e-06
-5.91665e-06
-5.91665e-06
-5.91665e-06
-5.91665e-06
-5.91665e-06
-5.91666e-06
-5.91666e-06
-5.91666e-06
-5.91666e-06
-5.91666e-06
-5.91667e-06
-5.91667e-06
-5.91667e-06
-5.91667e-06
-5.91667e-06
-5.91667e-06
-5.91668e-06
-5.91668e-06
-5.91668e-06
-5.91668e-06
-5.91668e-06
-5.91668e-06
-5.91669e-06
-5.91669e-06
-5.91669e-06
-5.91669e-06
-5.91669e-06
-5.91669e-06
-5.91669e-06
-5.91669e-06
-5.9167e-06
-5.9167e-06
-5.9167e-06
-5.9167e-06
-5.9167e-06
-5.9167e-06
-5.9167e-06
-5.9167e-06
-5.9167e-06
-5.9167e-06
-5.9167e-06
-5.9167e-06
-5.9167e-06
-5.9167e-06
-5.9167e-06
-5.9167e-06
-5.9167e-06
-5.9167e-06
-5.91669e-06
-5.91669e-06
-5.91669e-06
-5.91669e-06
-5.91668e-06
-5.91668e-06
-5.91667e-06
-5.91667e-06
-5.91666e-06
-5.91666e-06
-5.91665e-06
-5.91664e-06
-5.91663e-06
-5.91662e-06
-5.91662e-06
-5.91661e-06
-5.9166e-06
-5.91658e-06
-5.91657e-06
-5.91656e-06
-5.91654e-06
-5.91653e-06
-5.91652e-06
-5.9165e-06
-5.91649e-06
-5.91647e-06
-5.91645e-06
-5.91644e-06
-5.91642e-06
-5.9164e-06
-5.91638e-06
-5.91636e-06
-5.91634e-06
-5.91632e-06
-5.9163e-06
-5.91628e-06
-5.91627e-06
-5.91625e-06
-5.91623e-06
-5.91621e-06
-5.91619e-06
-5.91617e-06
-5.91615e-06
-5.91613e-06
-5.91611e-06
-5.91609e-06
-5.91608e-06
-5.91606e-06
-5.91604e-06
-5.91603e-06
-5.91601e-06
-5.916e-06
-5.91599e-06
-5.91597e-06
-5.91596e-06
-5.91595e-06
-5.91594e-06
-5.91594e-06
-5.91593e-06
-5.91592e-06
-5.91592e-06
-5.91592e-06
-5.91591e-06
-5.91591e-06
-5.91592e-06
-5.91592e-06
-5.91592e-06
-5.91592e-06
-5.91593e-06
-5.91594e-06
-5.91594e-06
-5.91595e-06
-5.91596e-06
-5.91597e-06
-5.91599e-06
-5.916e-06
-5.91601e-06
-5.91603e-06
-5.91604e-06
-5.91606e-06
-5.91608e-06
-5.91609e-06
-5.91611e-06
-5.91613e-06
-5.91615e-06
-5.91617e-06
-5.91619e-06
-5.91621e-06
-5.91623e-06
-5.91625e-06
-5.91627e-06
-5.91629e-06
-5.91631e-06
-5.91633e-06
-5.91635e-06
-5.91637e-06
-5.91639e-06
-5.91641e-06
-5.91642e-06
-5.91644e-06
-5.91646e-06
-5.91647e-06
-5.91648e-06
-5.9165e-06
-5.91651e-06
-5.91652e-06
-5.91653e-06
-5.91654e-06
-5.91654e-06
-5.91655e-06
-5.91655e-06
-5.91656e-06
-5.91656e-06
-5.91656e-06
-5.91656e-06
-5.91656e-06
-5.91655e-06
-5.91655e-06
-5.91654e-06
-5.91653e-06
-5.91652e-06
-5.91651e-06
-5.9165e-06
-5.91648e-06
-5.91647e-06
-5.91645e-06
-5.91644e-06
-5.91642e-06
-5.9164e-06
-5.91638e-06
-5.91635e-06
-5.91633e-06
-5.91631e-06
-5.91629e-06
-5.91626e-06
-5.91624e-06
-5.91621e-06
-5.91618e-06
-5.91616e-06
-5.91613e-06
-5.9161e-06
-5.91608e-06
-5.91605e-06
-5.91603e-06
-5.916e-06
-5.91598e-06
-5.91595e-06
-5.91593e-06
-5.9159e-06
-5.91588e-06
-5.91586e-06
-5.91583e-06
-5.91581e-06
-5.91579e-06
-5.91577e-06
-5.91576e-06
-5.91574e-06
-5.91572e-06
-5.91571e-06
-5.91569e-06
-5.91568e-06
-5.91567e-06
-5.91566e-06
-5.91565e-06
-5.91564e-06
-5.91564e-06
-5.91563e-06
-5.91563e-06
-5.91562e-06
-5.91562e-06
-5.91562e-06
-5.91562e-06
-5.91561e-06
-5.91561e-06
-5.91562e-06
-5.91562e-06
-5.91562e-06
-5.91563e-06
-5.91563e-06
-5.91563e-06
-5.91564e-06
-5.91564e-06
-5.91565e-06
-5.91565e-06
-5.91566e-06
-5.91566e-06
-5.91567e-06
-5.91567e-06
-5.91568e-06
-5.91568e-06
-5.91569e-06
-5.91569e-06
-5.9157e-06
-5.9157e-06
-5.9157e-06
-5.91571e-06
-5.91571e-06
-5.91571e-06
-5.91571e-06
-5.91572e-06
-5.91572e-06
-5.91572e-06
-5.91573e-06
-5.91573e-06
-5.91574e-06
-5.91574e-06
-5.91575e-06
-5.91576e-06
-5.91578e-06
-5.91579e-06
-5.91581e-06
-5.91584e-06
-5.91587e-06
-5.91591e-06
-5.91596e-06
-5.91602e-06
-5.91609e-06
-5.91617e-06
-5.91628e-06
-5.9164e-06
-5.91655e-06
-5.91672e-06
-5.91693e-06
-5.91718e-06
-5.91747e-06
-5.91782e-06
-5.91823e-06
-5.91871e-06
-5.91927e-06
-5.91992e-06
-5.92069e-06
-5.92158e-06
-5.92262e-06
-5.92383e-06
-5.92523e-06
-5.92685e-06
-5.92872e-06
-5.93088e-06
-5.93337e-06
-5.93623e-06
-5.93951e-06
-5.94328e-06
-5.94758e-06
-5.9525e-06
-5.95811e-06
-5.9645e-06
-5.97176e-06
-5.98001e-06
-5.98935e-06
-5.99992e-06
-6.01186e-06
-6.02531e-06
-6.04046e-06
-6.05749e-06
-6.07659e-06
-6.09798e-06
-6.12189e-06
-6.14858e-06
-6.17832e-06
-6.2114e-06
-6.24812e-06
-6.28883e-06
-6.33387e-06
-6.38361e-06
-6.43846e-06
-6.49883e-06
-6.56517e-06
-6.63792e-06
-6.71759e-06
-6.80467e-06
-6.89969e-06
-7.00319e-06
-7.11575e-06
-7.23794e-06
-7.37039e-06
-7.5137e-06
-7.66852e-06
-7.83551e-06
-8.01534e-06
-8.2087e-06
-8.41628e-06
-8.63882e-06
-8.87703e-06
-9.13167e-06
-9.40348e-06
-9.69323e-06
-1.00017e-05
-1.03297e-05
-1.06781e-05
-1.10477e-05
-1.14392e-05
-1.18537e-05
-1.2292e-05
-1.27551e-05
-1.32438e-05
-1.37593e-05
-1.43026e-05
-1.48748e-05
-1.54771e-05
-1.61107e-05
-1.6777e-05
-1.74772e-05
-1.82128e-05
-1.89851e-05
-1.97945e-05
-2.06259e-05
-2.15385e-05
-2.24941e-05
-2.3497e-05
-2.45513e-05
-2.56607e-05
-2.68284e-05
-2.80567e-05
-2.9346e-05
-3.06933e-05
-3.20893e-05
-3.35132e-05
-3.49231e-05
-3.62376e-05
-3.7299e-05
)
;

boundaryField
{
    fixedWall
    {
        type            calculated;
        value           uniform 0;
    }
    outlet
    {
        type            calculated;
        value           uniform -3.7795e-05;
    }
    defaultFaces
    {
        type            empty;
    }
}


// ************************************************************************* //
