/*--------------------------------*- C++ -*----------------------------------*\
| =========                 |                                                 |
| \\      /  F ield         | OpenFOAM: The Open Source CFD Toolbox           |
|  \\    /   O peration     | Version:  2406                                  |
|   \\  /    A nd           | Website:  www.openfoam.com                      |
|    \\/     M anipulation  |                                                 |
\*---------------------------------------------------------------------------*/
FoamFile
{
    version     2.0;
    format      ascii;
    arch        "LSB;label=32;scalar=64";
    class       volScalarField;
    location    "7.9";
    object      T;
}
// * * * * * * * * * * * * * * * * * * * * * * * * * * * * * * * * * * * * * //

dimensions      [0 0 0 1 0 0 0];

internalField   nonuniform List<scalar> 
1000
(
307.567
334.118
358.47
381.011
402.02
421.712
440.253
457.776
474.39
490.184
505.234
519.604
533.35
546.518
559.15
571.283
582.949
594.177
604.991
615.417
625.474
635.181
644.555
653.613
662.369
670.836
679.026
686.951
694.622
702.049
709.24
716.205
722.951
729.487
735.819
741.955
747.901
753.664
759.248
764.66
769.905
774.988
779.914
784.689
789.315
793.798
798.142
802.35
806.428
810.378
814.204
817.909
821.498
824.972
828.336
831.593
834.745
837.796
840.748
843.604
846.366
849.038
851.622
854.12
856.535
858.869
861.124
863.303
865.408
867.441
869.403
871.298
873.126
874.891
876.593
878.235
879.818
881.344
882.815
884.233
885.599
886.914
888.181
889.4
890.574
891.704
892.79
893.835
894.84
895.805
896.734
897.625
898.482
899.304
900.094
900.851
901.578
902.276
902.945
903.586
904.2
904.789
905.352
905.892
906.409
906.904
907.377
907.83
908.262
908.676
909.072
909.449
909.81
910.154
910.483
910.796
911.096
911.381
911.653
911.912
912.159
912.394
912.618
912.831
913.033
913.226
913.409
913.583
913.749
913.906
914.055
914.197
914.332
914.459
914.579
914.694
914.803
914.906
915.003
915.096
915.183
915.266
915.344
915.418
915.488
915.554
915.616
915.675
915.73
915.782
915.832
915.878
915.922
915.963
916.002
916.038
916.073
916.105
916.135
916.164
916.19
916.215
916.239
916.261
916.281
916.301
916.319
916.335
916.351
916.366
916.38
916.392
916.404
916.415
916.426
916.435
916.444
916.452
916.46
916.467
916.474
916.48
916.485
916.49
916.495
916.499
916.503
916.507
916.51
916.513
916.516
916.518
916.521
916.523
916.524
916.526
916.527
916.528
916.529
916.53
916.531
916.532
916.532
916.532
916.533
916.533
916.533
916.533
916.533
916.532
916.532
916.532
916.532
916.531
916.531
916.53
916.53
916.529
916.528
916.528
916.527
916.526
916.526
916.525
916.524
916.523
916.523
916.522
916.521
916.52
916.519
916.518
916.518
916.517
916.516
916.515
916.514
916.513
916.513
916.512
916.511
916.51
916.509
916.508
916.508
916.507
916.506
916.505
916.504
916.504
916.503
916.502
916.501
916.501
916.5
916.499
916.499
916.498
916.497
916.497
916.496
916.495
916.495
916.494
916.494
916.493
916.493
916.492
916.491
916.491
916.491
916.49
916.49
916.489
916.489
916.488
916.488
916.488
916.487
916.487
916.487
916.486
916.486
916.486
916.486
916.485
916.485
916.485
916.485
916.485
916.484
916.484
916.484
916.484
916.484
916.484
916.484
916.484
916.484
916.484
916.484
916.484
916.484
916.484
916.484
916.484
916.484
916.484
916.484
916.485
916.485
916.485
916.485
916.485
916.485
916.486
916.486
916.486
916.486
916.487
916.487
916.487
916.487
916.488
916.488
916.488
916.489
916.489
916.489
916.49
916.49
916.49
916.491
916.491
916.491
916.492
916.492
916.493
916.493
916.493
916.494
916.494
916.495
916.495
916.495
916.496
916.496
916.497
916.497
916.497
916.498
916.498
916.499
916.499
916.499
916.5
916.5
916.501
916.501
916.501
916.502
916.502
916.503
916.503
916.503
916.504
916.504
916.504
916.505
916.505
916.505
916.506
916.506
916.506
916.507
916.507
916.507
916.507
916.508
916.508
916.508
916.508
916.509
916.509
916.509
916.509
916.509
916.51
916.51
916.51
916.51
916.51
916.51
916.511
916.511
916.511
916.511
916.511
916.511
916.511
916.511
916.511
916.511
916.512
916.512
916.512
916.512
916.512
916.512
916.512
916.512
916.512
916.512
916.512
916.512
916.512
916.512
916.512
916.512
916.512
916.512
916.512
916.512
916.512
916.512
916.512
916.512
916.512
916.512
916.512
916.512
916.512
916.512
916.512
916.512
916.512
916.512
916.512
916.512
916.512
916.512
916.512
916.512
916.512
916.512
916.512
916.512
916.512
916.512
916.512
916.512
916.512
916.512
916.512
916.512
916.512
916.512
916.512
916.512
916.513
916.513
916.513
916.513
916.513
916.513
916.513
916.513
916.513
916.513
916.513
916.513
916.513
916.513
916.513
916.513
916.514
916.514
916.514
916.514
916.514
916.514
916.514
916.514
916.514
916.514
916.514
916.514
916.514
916.514
916.514
916.515
916.515
916.515
916.515
916.515
916.515
916.515
916.515
916.515
916.515
916.515
916.515
916.515
916.515
916.515
916.515
916.515
916.515
916.515
916.515
916.515
916.515
916.515
916.515
916.515
916.515
916.515
916.515
916.515
916.515
916.515
916.515
916.515
916.515
916.515
916.515
916.515
916.515
916.515
916.515
916.515
916.515
916.515
916.515
916.514
916.514
916.514
916.514
916.514
916.514
916.514
916.514
916.514
916.514
916.514
916.514
916.514
916.514
916.514
916.514
916.514
916.514
916.514
916.514
916.514
916.514
916.514
916.514
916.514
916.514
916.514
916.514
916.514
916.514
916.514
916.514
916.514
916.514
916.514
916.514
916.514
916.514
916.514
916.514
916.514
916.514
916.514
916.515
916.515
916.515
916.515
916.515
916.515
916.515
916.515
916.515
916.515
916.516
916.516
916.516
916.516
916.516
916.516
916.516
916.516
916.517
916.517
916.517
916.517
916.517
916.517
916.517
916.518
916.518
916.518
916.518
916.518
916.518
916.518
916.518
916.518
916.519
916.519
916.519
916.519
916.519
916.519
916.519
916.519
916.519
916.519
916.519
916.519
916.519
916.519
916.519
916.519
916.52
916.52
916.52
916.52
916.52
916.52
916.519
916.519
916.519
916.519
916.519
916.519
916.519
916.519
916.519
916.519
916.519
916.519
916.519
916.519
916.519
916.518
916.518
916.518
916.518
916.518
916.518
916.518
916.518
916.517
916.517
916.517
916.517
916.517
916.517
916.517
916.516
916.516
916.516
916.516
916.516
916.516
916.515
916.515
916.515
916.515
916.515
916.515
916.514
916.514
916.514
916.514
916.514
916.514
916.513
916.513
916.513
916.513
916.513
916.513
916.513
916.513
916.512
916.512
916.512
916.512
916.512
916.512
916.512
916.512
916.512
916.512
916.512
916.512
916.512
916.512
916.512
916.512
916.512
916.513
916.513
916.513
916.513
916.513
916.513
916.514
916.514
916.514
916.514
916.514
916.515
916.515
916.515
916.516
916.516
916.516
916.517
916.517
916.517
916.518
916.518
916.518
916.519
916.519
916.52
916.52
916.52
916.521
916.521
916.521
916.522
916.522
916.523
916.523
916.523
916.524
916.524
916.524
916.525
916.525
916.525
916.525
916.526
916.526
916.526
916.526
916.526
916.527
916.527
916.527
916.527
916.527
916.527
916.527
916.527
916.527
916.527
916.527
916.527
916.526
916.526
916.526
916.526
916.526
916.525
916.525
916.525
916.524
916.524
916.524
916.523
916.523
916.523
916.522
916.522
916.521
916.521
916.52
916.52
916.519
916.519
916.518
916.518
916.517
916.517
916.516
916.516
916.515
916.515
916.514
916.513
916.513
916.512
916.512
916.511
916.511
916.511
916.51
916.51
916.509
916.509
916.508
916.508
916.508
916.507
916.507
916.507
916.507
916.506
916.506
916.506
916.506
916.506
916.505
916.505
916.505
916.505
916.505
916.505
916.505
916.505
916.505
916.505
916.505
916.505
916.505
916.505
916.505
916.505
916.505
916.505
916.506
916.506
916.506
916.506
916.506
916.506
916.506
916.506
916.507
916.507
916.507
916.507
916.507
916.507
916.507
916.507
916.507
916.507
916.507
916.507
916.507
916.507
916.507
916.507
916.507
916.507
916.507
916.506
916.506
916.506
916.505
916.505
916.504
916.504
916.503
916.502
916.501
916.5
916.499
916.497
916.496
916.494
916.491
916.489
916.486
916.483
916.479
916.475
916.471
916.465
916.459
916.452
916.445
916.436
916.426
916.415
916.402
916.388
916.372
916.354
916.334
916.311
916.286
916.257
916.225
916.189
916.149
916.104
916.054
915.998
915.935
915.866
915.789
915.703
915.608
915.503
915.386
915.257
915.115
914.958
914.786
914.596
914.387
914.158
913.906
913.631
913.33
913.001
912.643
912.252
911.826
911.363
910.861
910.316
909.726
909.087
908.397
907.653
906.85
905.985
905.055
904.055
902.983
901.833
900.602
899.285
897.878
896.376
894.774
893.067
891.251
889.319
887.266
885.087
882.776
880.326
877.731
874.983
872.077
869.005
865.757
862.327
858.706
854.882
850.848
846.591
842.1
837.363
832.365
827.093
821.529
815.657
809.457
802.91
795.991
788.677
780.94
772.75
764.075
754.879
745.123
734.763
723.881
712.347
699.899
686.64
672.507
657.428
641.331
624.137
605.766
586.135
565.162
542.772
518.896
493.481
466.498
437.949
407.879
376.392
343.664
309.974
)
;

boundaryField
{
    fixedWall
    {
        type            fixedValue;
        value           uniform 293;
    }
    outlet
    {
        type            inletOutlet;
        inletValue      uniform 293;
        value           uniform 293;
    }
    defaultFaces
    {
        type            empty;
    }
}


// ************************************************************************* //
