/*--------------------------------*- C++ -*----------------------------------*\
| =========                 |                                                 |
| \\      /  F ield         | OpenFOAM: The Open Source CFD Toolbox           |
|  \\    /   O peration     | Version:  2406                                  |
|   \\  /    A nd           | Website:  www.openfoam.com                      |
|    \\/     M anipulation  |                                                 |
\*---------------------------------------------------------------------------*/
FoamFile
{
    version     2.0;
    format      ascii;
    arch        "LSB;label=32;scalar=64";
    class       volScalarField;
    location    "14.2";
    object      Qdot;
}
// * * * * * * * * * * * * * * * * * * * * * * * * * * * * * * * * * * * * * //

dimensions      [1 -1 -3 0 0 0 0];

internalField   nonuniform List<scalar> 
1000
(
-4.98415e-14
-1.12351e-17
-1.16934e-16
-8.41402e-16
-4.54378e-15
9.70652e-09
3.28679e-08
1.02731e-07
2.81423e-07
6.88934e-07
1.55374e-06
3.2372e-06
6.31597e-06
1.16439e-05
2.03956e-05
3.41647e-05
5.50115e-05
8.54833e-05
0.000128672
0.000188202
0.000268206
0.000373278
0.000508429
0.000678968
0.000890407
0.00114835
0.00145834
0.00182575
0.00225563
0.00275256
0.00332058
0.00396304
0.00468251
0.00548072
0.00635851
0.00731575
0.00835139
0.00946342
0.0106489
0.011904
0.0132242
0.014604
0.0160374
0.0175178
0.0190382
0.020591
0.0221686
0.0237632
0.0253667
0.0269714
0.0285695
0.0301535
0.0317162
0.0332508
0.0347508
0.0362104
0.037624
0.0389868
0.0402944
0.0415431
0.0427298
0.0438518
0.044907
0.045894
0.0468118
0.0476598
0.0484381
0.0491469
0.0497872
0.0503601
0.050867
0.0513097
0.0516902
0.0520107
0.0522737
0.0524816
0.0526371
0.052743
0.0528021
0.0528171
0.0527911
0.0527267
0.0526268
0.0524942
0.0523315
0.0521415
0.0519267
0.0516894
0.0514322
0.0511573
0.0508668
0.0505628
0.0502473
0.049922
0.0495888
0.0492491
0.0489046
0.0485566
0.0482065
0.0478554
0.0475044
0.0471546
0.0468069
0.046462
0.0461209
0.0457841
0.0454523
0.045126
0.0448057
0.0444919
0.0441848
0.0438848
0.0435922
0.0433072
0.0430299
0.0427606
0.0424993
0.0422461
0.042001
0.041764
0.0415352
0.0413145
0.0411019
0.0408973
0.0407006
0.0405118
0.0403306
0.040157
0.0399909
0.0398322
0.0396805
0.039536
0.0393982
0.0392672
0.0391427
0.0390246
0.0389127
0.0388068
0.0387068
0.0386125
0.0385236
0.0384402
0.0383619
0.0382886
0.0382201
0.0381564
0.0380971
0.0380423
0.0379916
0.037945
0.0379023
0.0378634
0.037828
0.0377962
0.0377677
0.0377425
0.0377203
0.0377011
0.0376847
0.037671
0.03766
0.0376515
0.0376453
0.0376415
0.0376398
0.0376403
0.0376427
0.0376471
0.0376532
0.0376612
0.0376707
0.0376819
0.0376946
0.0377087
0.0377242
0.037741
0.0377591
0.0377783
0.0377986
0.03782
0.0378425
0.0378659
0.0378901
0.0379153
0.0379413
0.0379681
0.0379955
0.0380237
0.0380527
0.0380821
0.0381121
0.0381428
0.038174
0.0382057
0.0382379
0.0382706
0.0383037
0.0383371
0.038371
0.0384052
0.0384398
0.0384746
0.0385098
0.0385453
0.0385811
0.0386172
0.0386533
0.0386898
0.0387265
0.0387634
0.0388005
0.0388378
0.0388752
0.0389129
0.0389506
0.0389886
0.0390265
0.0390647
0.0391028
0.0391413
0.0391798
0.0392184
0.0392571
0.039296
0.0393348
0.0393738
0.0394129
0.039452
0.0394913
0.0395306
0.0395699
0.0396093
0.0396488
0.0396883
0.0397279
0.0397676
0.0398072
0.039847
0.0398868
0.0399265
0.0399665
0.0400064
0.0400465
0.0400866
0.0401265
0.0401667
0.0402069
0.0402471
0.0402874
0.0403277
0.040368
0.0404084
0.0404488
0.0404893
0.0405299
0.0405704
0.040611
0.0406517
0.0406924
0.0407331
0.0407738
0.0408146
0.0408555
0.0408963
0.0409373
0.0409782
0.0410192
0.0410603
0.0411014
0.0411425
0.0411837
0.0412249
0.0412661
0.0413075
0.0413488
0.0413902
0.0414317
0.0414732
0.0415147
0.0415563
0.0415979
0.0416396
0.0416814
0.0417232
0.0417648
0.0418067
0.0418487
0.0418907
0.0419327
0.0419748
0.0420169
0.0420591
0.0421013
0.0421434
0.0421858
0.0422281
0.0422706
0.0423131
0.0423556
0.0423982
0.0424408
0.0424835
0.0425262
0.042569
0.0426119
0.0426548
0.0426977
0.0427407
0.0427838
0.0428269
0.0428701
0.0429134
0.0429567
0.043
0.0430435
0.0430869
0.0431305
0.0431741
0.0432177
0.0432614
0.0433052
0.0433491
0.043393
0.0434369
0.0434809
0.043525
0.0435692
0.0436134
0.0436577
0.043702
0.0437464
0.0437909
0.0438354
0.04388
0.0439247
0.0439693
0.0440141
0.0440588
0.0441037
0.0441487
0.0441938
0.0442389
0.0442841
0.0443293
0.0443746
0.04442
0.0444655
0.044511
0.0445566
0.0446022
0.0446479
0.0446937
0.0447396
0.0447856
0.0448314
0.0448775
0.0449237
0.0449699
0.0450162
0.0450626
0.045109
0.0451553
0.0452019
0.0452485
0.0452953
0.0453421
0.0453889
0.0454358
0.0454828
0.0455299
0.0455771
0.0456243
0.0456716
0.0457189
0.0457664
0.0458139
0.0458615
0.0459092
0.0459569
0.0460047
0.0460526
0.0461005
0.0461486
0.0461967
0.0462449
0.0462931
0.0463415
0.04639
0.0464385
0.0464869
0.0465356
0.0465841
0.046633
0.0466819
0.0467309
0.0467798
0.0468289
0.0468781
0.0469274
0.0469768
0.0470262
0.0470757
0.0471253
0.047175
0.0472247
0.0472746
0.0473245
0.0473744
0.0474245
0.0474746
0.0475249
0.0475752
0.0476255
0.047676
0.0477265
0.0477772
0.0478279
0.0478786
0.0479295
0.0479805
0.0480315
0.0480826
0.0481338
0.048185
0.0482364
0.0482878
0.0483393
0.0483909
0.0484426
0.0484944
0.0485462
0.0485982
0.0486502
0.0487022
0.0487544
0.0488067
0.048859
0.0489114
0.0489639
0.0490165
0.0490692
0.049122
0.0491748
0.0492278
0.0492808
0.0493339
0.0493871
0.0494405
0.0494939
0.0495471
0.0496007
0.0496544
0.0497081
0.0497619
0.0498159
0.0498699
0.0499237
0.0499779
0.0500322
0.0500866
0.050141
0.0501955
0.0502501
0.0503048
0.0503596
0.0504144
0.0504694
0.0505244
0.0505796
0.0506348
0.0506901
0.0507455
0.050801
0.0508566
0.0509123
0.0509681
0.0510239
0.0510799
0.0511359
0.0511921
0.0512483
0.0513047
0.0513609
0.0514175
0.0514741
0.0515308
0.0515876
0.0516445
0.0517015
0.0517585
0.0518157
0.051873
0.0519303
0.0519878
0.0520453
0.052103
0.0521607
0.0522185
0.0522764
0.0523345
0.0523926
0.0524508
0.0525091
0.0525675
0.0526261
0.0526847
0.0527434
0.0528022
0.0528611
0.0529201
0.0529792
0.0530384
0.0530977
0.0531571
0.0532166
0.0532762
0.0533359
0.0533957
0.0534556
0.0535156
0.0535757
0.0536359
0.0536962
0.0537566
0.0538171
0.0538777
0.0539384
0.0539993
0.0540602
0.0541212
0.0541823
0.0542435
0.0543048
0.0543663
0.0544278
0.0544895
0.054551
0.0546129
0.0546748
0.0547369
0.0547991
0.0548614
0.0549238
0.0549861
0.0550487
0.0551114
0.0551742
0.0552371
0.0553001
0.0553633
0.0554265
0.0554898
0.0555533
0.0556169
0.0556805
0.0557443
0.0558082
0.0558722
0.0559363
0.0560005
0.0560648
0.0561292
0.0561937
0.0562584
0.0563231
0.0563879
0.0564529
0.056518
0.0565832
0.0566485
0.0567139
0.0567795
0.0568452
0.0569109
0.0569768
0.0570428
0.0571089
0.0571752
0.0572415
0.057308
0.0573746
0.0574413
0.0575081
0.057575
0.057642
0.0577092
0.0577765
0.0578439
0.0579114
0.057979
0.0580468
0.0581146
0.0581826
0.0582507
0.058319
0.0583873
0.0584558
0.0585244
0.0585931
0.0586619
0.0587309
0.0587999
0.0588691
0.0589385
0.0590079
0.0590775
0.0591472
0.059217
0.0592869
0.059357
0.0594272
0.0594975
0.0595679
0.0596385
0.0597092
0.05978
0.059851
0.059922
0.0599932
0.0600646
0.060136
0.0602076
0.0602793
0.0603511
0.0604231
0.0604952
0.0605674
0.0606398
0.0607123
0.0607849
0.0608577
0.0609305
0.0610035
0.0610767
0.06115
0.0612234
0.0612969
0.0613706
0.0614444
0.0615183
0.0615924
0.0616666
0.0617409
0.0618154
0.06189
0.0619648
0.0620396
0.0621147
0.0621898
0.0622651
0.0623405
0.0624161
0.0624918
0.0625676
0.0626436
0.0627197
0.062796
0.0628724
0.0629489
0.0630256
0.0631024
0.0631793
0.0632564
0.0633337
0.0634111
0.0634886
0.0635663
0.0636441
0.0637221
0.0638002
0.0638784
0.0639566
0.0640347
0.0641134
0.0641922
0.0642711
0.0643502
0.0644294
0.0645087
0.0645883
0.0646679
0.0647477
0.0648276
0.0649077
0.064988
0.0650684
0.0651489
0.0652296
0.0653104
0.0653914
0.0654725
0.0655534
0.0656348
0.0657163
0.065798
0.0658798
0.0659618
0.066044
0.0661263
0.0662087
0.0662913
0.066374
0.0664569
0.06654
0.0666232
0.0667065
0.06679
0.0668737
0.0669575
0.0670415
0.0671256
0.0672099
0.0672944
0.0673789
0.0674637
0.0675486
0.0676337
0.0677189
0.0678043
0.0678898
0.0679755
0.0680614
0.0681474
0.0682335
0.0683199
0.0684064
0.068493
0.0685798
0.0686668
0.0687539
0.0688412
0.0689287
0.0690163
0.069104
0.069192
0.0692801
0.0693683
0.0694567
0.0695453
0.069634
0.0697229
0.069812
0.0699012
0.0699906
0.0700801
0.0701699
0.0702597
0.0703498
0.0704399
0.0705303
0.0706208
0.0707115
0.0708024
0.0708934
0.0709846
0.0710759
0.0711674
0.0712591
0.0713509
0.071443
0.0715352
0.0716275
0.0717201
0.0718128
0.0719057
0.0719988
0.072092
0.0721855
0.0722791
0.072373
0.072467
0.0725612
0.0726557
0.0727504
0.0728453
0.0729404
0.0730358
0.0731314
0.0732273
0.0733235
0.0734199
0.0735166
0.0736137
0.0737111
0.0738088
0.0739068
0.0740053
0.0741042
0.0742035
0.0743032
0.0744034
0.0745042
0.0746055
0.0747073
0.0748098
0.0749129
0.0750168
0.0751213
0.0752267
0.075333
0.0754401
0.0755482
0.0756574
0.0757677
0.0758792
0.0759919
0.0761061
0.0762216
0.0763388
0.0764576
0.0765781
0.0767006
0.0768251
0.0769518
0.0770807
0.0772122
0.0773463
0.0774832
0.077623
0.0777661
0.0779125
0.0780626
0.0782165
0.0783745
0.0785369
0.0787038
0.0788757
0.0790528
0.0792354
0.0794238
0.0796185
0.0798198
0.080028
0.0802436
0.080467
0.0806987
0.0809391
0.0811887
0.081448
0.0817176
0.081998
0.0822898
0.0825936
0.0829101
0.0832398
0.0835835
0.0839419
0.0843158
0.0847058
0.0851128
0.0855376
0.0859811
0.0864441
0.0869275
0.0874322
0.0879593
0.0885096
0.0890842
0.0896842
0.0903105
0.0909643
0.0916467
0.0923587
0.0931016
0.0938763
0.0946842
0.0955264
0.096404
0.0973183
0.0982703
0.0992613
0.100292
0.101365
0.102479
0.103637
0.104839
0.106087
0.107381
0.108722
0.11011
0.111547
0.113033
0.114567
0.116152
0.117785
0.119468
0.1212
0.12298
0.124807
0.126681
0.1286
0.130561
0.132564
0.134604
0.13668
0.138788
0.140924
0.143083
0.14526
0.14745
0.149647
0.151844
0.154032
0.156205
0.158353
0.160466
0.162534
0.164546
0.16649
0.168354
0.170123
0.171786
0.173326
0.174729
0.175979
0.177061
0.177958
0.178654
0.179132
0.179376
0.17937
0.179099
0.178548
0.177703
0.176551
0.17508
0.173282
0.171147
0.168672
0.165851
0.162684
0.159174
0.155326
0.151147
0.14665
0.14185
0.136765
0.131417
0.125832
0.120038
0.114066
0.107951
0.101729
0.095439
0.08912
0.0828127
0.0765579
0.0703961
0.0643664
0.0585064
0.0528514
0.0474335
0.0422812
0.0374192
0.0328674
0.0286412
0.0247636
0.0212436
0.018031
0.0151555
0.0126079
0.0103748
0.00843927
0.00678141
0.00537901
0.00420829
0.00324454
0.00246283
0.00183869
0.00134862
0.000970643
0.000684606
0.000472511
0.000318633
0.000209571
0.000134187
8.34729e-05
5.03307e-05
2.9343e-05
1.64952e-05
8.91517e-06
4.61627e-06
2.28135e-06
1.07229e-06
4.76346e-07
2.00161e-07
7.80064e-08
2.87983e-08
8.90586e-09
2.68182e-09
4.75552e-10
7.99176e-10
3.23523e-10
-1.81662e-17
-2.93454e-18
-3.91272e-19
1.22168e-11
0
0
0
)
;

boundaryField
{
    fixedWall
    {
        type            calculated;
        value           uniform 0;
    }
    outlet
    {
        type            calculated;
        value           uniform 0;
    }
    defaultFaces
    {
        type            empty;
    }
}


// ************************************************************************* //
