/*--------------------------------*- C++ -*----------------------------------*\
| =========                 |                                                 |
| \\      /  F ield         | OpenFOAM: The Open Source CFD Toolbox           |
|  \\    /   O peration     | Version:  2406                                  |
|   \\  /    A nd           | Website:  www.openfoam.com                      |
|    \\/     M anipulation  |                                                 |
\*---------------------------------------------------------------------------*/
FoamFile
{
    version     2.0;
    format      ascii;
    arch        "LSB;label=32;scalar=64";
    class       volScalarField;
    location    "2.6";
    object      CO2;
}
// * * * * * * * * * * * * * * * * * * * * * * * * * * * * * * * * * * * * * //

dimensions      [0 0 0 0 0 0 0];

internalField   nonuniform List<scalar> 
1000
(
0.0709257
0.0709257
0.0709257
0.0709257
0.0709257
0.0709257
0.0709257
0.0709257
0.0709257
0.0709257
0.0709258
0.0709258
0.0709258
0.0709258
0.0709258
0.0709258
0.0709258
0.0709259
0.0709259
0.0709259
0.0709259
0.0709259
0.0709259
0.070926
0.070926
0.070926
0.070926
0.070926
0.070926
0.070926
0.0709261
0.0709261
0.0709261
0.0709261
0.0709261
0.0709261
0.0709261
0.0709261
0.0709262
0.0709262
0.0709262
0.0709262
0.0709262
0.0709262
0.0709262
0.0709262
0.0709262
0.0709262
0.0709262
0.0709262
0.0709262
0.0709262
0.0709262
0.0709262
0.0709262
0.0709262
0.0709262
0.0709262
0.0709262
0.0709262
0.0709262
0.0709262
0.0709262
0.0709262
0.0709262
0.0709262
0.0709262
0.0709262
0.0709262
0.0709262
0.0709262
0.0709262
0.0709262
0.0709262
0.0709262
0.0709262
0.0709262
0.0709262
0.0709262
0.0709262
0.0709262
0.0709262
0.0709262
0.0709262
0.0709262
0.0709262
0.0709262
0.0709262
0.0709262
0.0709262
0.0709262
0.0709262
0.0709262
0.0709262
0.0709262
0.0709262
0.0709262
0.0709262
0.0709262
0.0709262
0.0709262
0.0709262
0.0709262
0.0709262
0.0709262
0.0709262
0.0709262
0.0709262
0.0709262
0.0709262
0.0709262
0.0709262
0.0709262
0.0709261
0.0709261
0.0709261
0.0709261
0.0709261
0.0709261
0.0709261
0.0709261
0.0709261
0.0709261
0.0709261
0.0709261
0.0709261
0.0709261
0.0709261
0.0709261
0.0709261
0.0709261
0.0709261
0.0709261
0.0709261
0.0709261
0.0709261
0.0709261
0.0709261
0.0709261
0.0709261
0.0709261
0.0709261
0.0709261
0.0709261
0.0709261
0.0709261
0.0709261
0.0709261
0.070926
0.070926
0.070926
0.070926
0.070926
0.070926
0.070926
0.070926
0.070926
0.070926
0.070926
0.070926
0.070926
0.070926
0.070926
0.070926
0.070926
0.070926
0.070926
0.070926
0.070926
0.070926
0.070926
0.070926
0.070926
0.070926
0.070926
0.070926
0.0709259
0.0709259
0.0709259
0.0709259
0.0709259
0.0709259
0.0709259
0.0709259
0.0709259
0.0709259
0.0709259
0.0709259
0.0709259
0.0709259
0.0709259
0.0709259
0.0709259
0.0709259
0.0709259
0.0709259
0.0709259
0.0709259
0.0709258
0.0709258
0.0709258
0.0709258
0.0709258
0.0709258
0.0709258
0.0709258
0.0709258
0.0709258
0.0709258
0.0709258
0.0709258
0.0709258
0.0709258
0.0709258
0.0709258
0.0709258
0.0709257
0.0709257
0.0709257
0.0709257
0.0709257
0.0709257
0.0709257
0.0709257
0.0709257
0.0709257
0.0709257
0.0709257
0.0709257
0.0709257
0.0709257
0.0709256
0.0709256
0.0709256
0.0709256
0.0709256
0.0709256
0.0709256
0.0709256
0.0709256
0.0709256
0.0709256
0.0709256
0.0709256
0.0709255
0.0709255
0.0709255
0.0709255
0.0709255
0.0709255
0.0709255
0.0709255
0.0709255
0.0709255
0.0709255
0.0709254
0.0709254
0.0709254
0.0709254
0.0709254
0.0709254
0.0709254
0.0709254
0.0709254
0.0709254
0.0709253
0.0709253
0.0709253
0.0709253
0.0709253
0.0709253
0.0709253
0.0709253
0.0709252
0.0709252
0.0709252
0.0709252
0.0709252
0.0709252
0.0709252
0.0709252
0.0709251
0.0709251
0.0709251
0.0709251
0.0709251
0.0709251
0.070925
0.070925
0.070925
0.070925
0.070925
0.070925
0.0709249
0.0709249
0.0709249
0.0709249
0.0709249
0.0709249
0.0709248
0.0709248
0.0709248
0.0709248
0.0709248
0.0709247
0.0709247
0.0709247
0.0709247
0.0709246
0.0709246
0.0709246
0.0709246
0.0709245
0.0709245
0.0709245
0.0709245
0.0709244
0.0709244
0.0709244
0.0709243
0.0709243
0.0709243
0.0709242
0.0709242
0.0709242
0.0709241
0.0709241
0.0709241
0.070924
0.070924
0.070924
0.0709239
0.0709239
0.0709238
0.0709238
0.0709237
0.0709237
0.0709236
0.0709236
0.0709235
0.0709235
0.0709234
0.0709234
0.0709233
0.0709232
0.0709232
0.0709231
0.070923
0.070923
0.0709229
0.0709228
0.0709227
0.0709226
0.0709226
0.0709225
0.0709224
0.0709223
0.0709222
0.0709221
0.0709219
0.0709218
0.0709217
0.0709216
0.0709214
0.0709213
0.0709211
0.070921
0.0709208
0.0709206
0.0709204
0.0709202
0.07092
0.0709198
0.0709196
0.0709193
0.070919
0.0709187
0.0709184
0.0709181
0.0709177
0.0709173
0.0709169
0.0709164
0.0709159
0.0709153
0.0709146
0.0709139
0.0709131
0.0709122
0.0709112
0.07091
0.0709086
0.0709071
0.0709052
0.0709029
0.0709002
0.0708969
0.0708928
0.0708876
0.0708806
0.0708711
0.0708571
0.0708354
0.0707988
0.0707302
0.070584
0.0702091
0.069019
0.0644781
0.0370323
0.0182469
0.00896832
0.0044245
0.0021922
0.00108975
0.000542923
0.00027088
0.000135277
6.75992e-05
3.37947e-05
1.69002e-05
8.45351e-06
4.22923e-06
2.11618e-06
1.059e-06
5.30032e-07
2.65323e-07
1.32844e-07
6.65365e-08
3.33593e-08
1.6728e-08
8.4151e-09
4.26003e-09
2.17309e-09
1.13472e-09
7.72853e-10
5.1327e-10
3.08816e-10
2.04968e-10
1.53882e-10
1.34966e-10
1.21993e-10
1.14049e-10
1.10246e-10
1.08044e-10
1.0685e-10
1.06154e-10
1.05736e-10
1.05474e-10
1.05313e-10
1.05229e-10
1.05176e-10
1.05147e-10
1.05124e-10
1.05115e-10
1.05107e-10
1.05103e-10
1.05101e-10
1.051e-10
1.05099e-10
1.05099e-10
1.05099e-10
1.05099e-10
1.05099e-10
1.05099e-10
1.05099e-10
1.051e-10
1.051e-10
1.051e-10
1.051e-10
1.05101e-10
1.05101e-10
1.05101e-10
1.05101e-10
1.05102e-10
1.05102e-10
1.05102e-10
1.05102e-10
1.05102e-10
1.05103e-10
1.05103e-10
1.05103e-10
1.05103e-10
1.05104e-10
1.05104e-10
1.05104e-10
1.05104e-10
1.05105e-10
1.05105e-10
1.05105e-10
1.05105e-10
1.05105e-10
1.05106e-10
1.05106e-10
1.05106e-10
1.05106e-10
1.05107e-10
1.05107e-10
1.05107e-10
1.05107e-10
1.05107e-10
1.05108e-10
1.05108e-10
1.05108e-10
1.05108e-10
1.05109e-10
1.05109e-10
1.05109e-10
1.05109e-10
1.05109e-10
1.0511e-10
1.0511e-10
1.0511e-10
1.05111e-10
1.05111e-10
1.05111e-10
1.05111e-10
1.05111e-10
1.05112e-10
1.05112e-10
1.05112e-10
1.05112e-10
1.05113e-10
1.05113e-10
1.05113e-10
1.05113e-10
1.05114e-10
1.05114e-10
1.05114e-10
1.05114e-10
1.05115e-10
1.05115e-10
1.05115e-10
1.05115e-10
1.05115e-10
1.05116e-10
1.05116e-10
1.05116e-10
1.05116e-10
1.05116e-10
1.05117e-10
1.05117e-10
1.05117e-10
1.05117e-10
1.05118e-10
1.05118e-10
1.05118e-10
1.05118e-10
1.05119e-10
1.05119e-10
1.05119e-10
1.05119e-10
1.0512e-10
1.0512e-10
1.0512e-10
1.0512e-10
1.0512e-10
1.05121e-10
1.05121e-10
1.05121e-10
1.05121e-10
1.05122e-10
1.05122e-10
1.05122e-10
1.05122e-10
1.05123e-10
1.05123e-10
1.05123e-10
1.05123e-10
1.05124e-10
1.05124e-10
1.05124e-10
1.05124e-10
1.05124e-10
1.05125e-10
1.05125e-10
1.05125e-10
1.05125e-10
1.05126e-10
1.05126e-10
1.05126e-10
1.05126e-10
1.05127e-10
1.05127e-10
1.05127e-10
1.05127e-10
1.05128e-10
1.05128e-10
1.05128e-10
1.05128e-10
1.05128e-10
1.05129e-10
1.05129e-10
1.05129e-10
1.05129e-10
1.0513e-10
1.0513e-10
1.0513e-10
1.0513e-10
1.0513e-10
1.05131e-10
1.05131e-10
1.05131e-10
1.05132e-10
1.05132e-10
1.05132e-10
1.05132e-10
1.05133e-10
1.05133e-10
1.05133e-10
1.05133e-10
1.05133e-10
1.05134e-10
1.05134e-10
1.05134e-10
1.05134e-10
1.05135e-10
1.05135e-10
1.05135e-10
1.05135e-10
1.05136e-10
1.05136e-10
1.05136e-10
1.05136e-10
1.05137e-10
1.05137e-10
1.05137e-10
1.05137e-10
1.05137e-10
1.05138e-10
1.05138e-10
1.05138e-10
1.05139e-10
1.05139e-10
1.05139e-10
1.05139e-10
1.0514e-10
1.0514e-10
1.0514e-10
1.05141e-10
1.05141e-10
1.05141e-10
1.05141e-10
1.05141e-10
1.05142e-10
1.05142e-10
1.05142e-10
1.05142e-10
1.05143e-10
1.05143e-10
1.05143e-10
1.05143e-10
1.05144e-10
1.05144e-10
1.05144e-10
1.05144e-10
1.05144e-10
1.05145e-10
1.05145e-10
1.05145e-10
1.05146e-10
1.05146e-10
1.05146e-10
1.05146e-10
1.05146e-10
1.05147e-10
1.05147e-10
1.05147e-10
1.05147e-10
1.05148e-10
1.05148e-10
1.05148e-10
1.05148e-10
1.05149e-10
1.05149e-10
1.05149e-10
1.05149e-10
1.0515e-10
1.0515e-10
1.0515e-10
1.05151e-10
1.05151e-10
1.05151e-10
1.05151e-10
1.05151e-10
1.05152e-10
1.05152e-10
1.05152e-10
1.05153e-10
1.05153e-10
1.05153e-10
1.05153e-10
1.05153e-10
1.05154e-10
1.05154e-10
1.05154e-10
1.05154e-10
1.05155e-10
1.05155e-10
1.05155e-10
1.05155e-10
1.05156e-10
1.05156e-10
1.05156e-10
1.05156e-10
1.05157e-10
1.05157e-10
1.05157e-10
1.05158e-10
1.05158e-10
1.05158e-10
1.05158e-10
1.05159e-10
1.05159e-10
1.05159e-10
1.05159e-10
1.0516e-10
1.0516e-10
1.0516e-10
1.0516e-10
1.05161e-10
1.05161e-10
1.05161e-10
1.05161e-10
1.05162e-10
1.05162e-10
1.05162e-10
1.05162e-10
1.05162e-10
1.05163e-10
1.05163e-10
1.05163e-10
1.05164e-10
1.05164e-10
1.05164e-10
1.05164e-10
1.05165e-10
1.05165e-10
1.05165e-10
1.05165e-10
1.05166e-10
1.05166e-10
1.05166e-10
1.05166e-10
1.05167e-10
1.05167e-10
1.05167e-10
1.05167e-10
1.05168e-10
1.05168e-10
1.05168e-10
1.05168e-10
1.05169e-10
1.05169e-10
1.05169e-10
1.05169e-10
1.0517e-10
1.0517e-10
1.0517e-10
1.0517e-10
1.05171e-10
1.05171e-10
1.05171e-10
1.05172e-10
1.05172e-10
1.05172e-10
1.05172e-10
1.05173e-10
1.05173e-10
1.05173e-10
1.05173e-10
1.05174e-10
1.05174e-10
1.05174e-10
1.05174e-10
1.05175e-10
1.05175e-10
1.05175e-10
1.05175e-10
1.05176e-10
1.05176e-10
1.05176e-10
1.05176e-10
1.05177e-10
1.05177e-10
1.05177e-10
1.05177e-10
1.05178e-10
1.05178e-10
1.05178e-10
1.05178e-10
1.05179e-10
1.05179e-10
1.05179e-10
1.0518e-10
1.0518e-10
1.0518e-10
1.0518e-10
1.05181e-10
1.05181e-10
1.05181e-10
1.05181e-10
1.05182e-10
1.05182e-10
1.05182e-10
1.05182e-10
1.05183e-10
1.05183e-10
1.05183e-10
1.05183e-10
1.05184e-10
1.05184e-10
1.05184e-10
1.05184e-10
1.05185e-10
1.05185e-10
1.05185e-10
1.05185e-10
1.05186e-10
1.05186e-10
1.05186e-10
1.05186e-10
1.05187e-10
1.05187e-10
1.05187e-10
1.05188e-10
1.05188e-10
1.05188e-10
1.05188e-10
1.05189e-10
1.05189e-10
1.05189e-10
1.05189e-10
1.0519e-10
1.0519e-10
1.0519e-10
1.0519e-10
1.05191e-10
1.05191e-10
1.05191e-10
1.05192e-10
1.05192e-10
1.05192e-10
1.05192e-10
1.05193e-10
1.05193e-10
1.05193e-10
1.05193e-10
1.05194e-10
1.05194e-10
1.05194e-10
1.05194e-10
1.05195e-10
1.05195e-10
1.05195e-10
1.05195e-10
1.05196e-10
1.05196e-10
1.05196e-10
1.05196e-10
1.05197e-10
1.05197e-10
1.05197e-10
1.05198e-10
1.05198e-10
1.05198e-10
1.05198e-10
1.05199e-10
1.05199e-10
1.05199e-10
1.05199e-10
1.052e-10
1.052e-10
1.052e-10
1.052e-10
1.05201e-10
1.05201e-10
1.05201e-10
1.05201e-10
1.05202e-10
1.05202e-10
1.05202e-10
1.05202e-10
1.05203e-10
1.05203e-10
1.05203e-10
1.05204e-10
1.05204e-10
1.05204e-10
1.05204e-10
1.05205e-10
1.05205e-10
1.05205e-10
1.05205e-10
1.05206e-10
1.05206e-10
1.05206e-10
1.05206e-10
1.05207e-10
1.05207e-10
1.05207e-10
1.05208e-10
1.05208e-10
1.05208e-10
1.05209e-10
1.05209e-10
1.05209e-10
1.05209e-10
1.0521e-10
1.0521e-10
1.0521e-10
1.0521e-10
1.05211e-10
1.05211e-10
1.05211e-10
1.05211e-10
1.05212e-10
1.05212e-10
1.05212e-10
1.05212e-10
1.05213e-10
1.05213e-10
1.05213e-10
1.05213e-10
1.05214e-10
1.05214e-10
1.05214e-10
1.05214e-10
1.05215e-10
1.05215e-10
1.05215e-10
1.05216e-10
1.05216e-10
1.05216e-10
1.05216e-10
1.05217e-10
1.05217e-10
1.05217e-10
1.05217e-10
1.05218e-10
1.05218e-10
1.05218e-10
1.05218e-10
1.05219e-10
1.05219e-10
1.05219e-10
1.0522e-10
1.0522e-10
1.0522e-10
1.0522e-10
1.05221e-10
1.05221e-10
1.05221e-10
1.05221e-10
1.05222e-10
1.05222e-10
1.05222e-10
1.05223e-10
1.05223e-10
1.05223e-10
1.05223e-10
1.05224e-10
1.05224e-10
1.05224e-10
1.05225e-10
1.05225e-10
1.05225e-10
1.05225e-10
1.05226e-10
1.05226e-10
1.05226e-10
1.05227e-10
1.05227e-10
1.05227e-10
1.05227e-10
1.05228e-10
1.05228e-10
1.05228e-10
1.05229e-10
1.05229e-10
1.05229e-10
1.05229e-10
1.0523e-10
1.0523e-10
1.0523e-10
1.0523e-10
1.05231e-10
1.05231e-10
1.05231e-10
1.05231e-10
1.05232e-10
1.05232e-10
1.05232e-10
1.05232e-10
1.05233e-10
1.05233e-10
1.05233e-10
1.05234e-10
1.05234e-10
1.05234e-10
)
;

boundaryField
{
    fixedWall
    {
        type            zeroGradient;
    }
    outlet
    {
        type            inletOutlet;
        inletValue      uniform 0;
        value           uniform 1.05234e-10;
    }
    defaultFaces
    {
        type            empty;
    }
}


// ************************************************************************* //
