/*--------------------------------*- C++ -*----------------------------------*\
| =========                 |                                                 |
| \\      /  F ield         | OpenFOAM: The Open Source CFD Toolbox           |
|  \\    /   O peration     | Version:  2406                                  |
|   \\  /    A nd           | Website:  www.openfoam.com                      |
|    \\/     M anipulation  |                                                 |
\*---------------------------------------------------------------------------*/
FoamFile
{
    version     2.0;
    format      ascii;
    arch        "LSB;label=32;scalar=64";
    class       volScalarField;
    location    "2.6";
    object      H2O;
}
// * * * * * * * * * * * * * * * * * * * * * * * * * * * * * * * * * * * * * //

dimensions      [0 0 0 0 0 0 0];

internalField   nonuniform List<scalar> 
1000
(
0.0580662
0.0580662
0.0580662
0.0580662
0.0580663
0.0580663
0.0580663
0.0580663
0.0580663
0.0580663
0.0580663
0.0580663
0.0580663
0.0580663
0.0580663
0.0580663
0.0580664
0.0580664
0.0580664
0.0580664
0.0580664
0.0580664
0.0580664
0.0580665
0.0580665
0.0580665
0.0580665
0.0580665
0.0580665
0.0580665
0.0580665
0.0580666
0.0580666
0.0580666
0.0580666
0.0580666
0.0580666
0.0580666
0.0580666
0.0580666
0.0580666
0.0580666
0.0580666
0.0580667
0.0580667
0.0580667
0.0580667
0.0580667
0.0580667
0.0580667
0.0580667
0.0580667
0.0580667
0.0580667
0.0580667
0.0580667
0.0580667
0.0580667
0.0580667
0.0580667
0.0580667
0.0580667
0.0580667
0.0580667
0.0580667
0.0580667
0.0580667
0.0580667
0.0580667
0.0580667
0.0580667
0.0580667
0.0580667
0.0580667
0.0580667
0.0580667
0.0580667
0.0580667
0.0580667
0.0580667
0.0580667
0.0580667
0.0580667
0.0580667
0.0580667
0.0580667
0.0580667
0.0580667
0.0580667
0.0580667
0.0580667
0.0580667
0.0580667
0.0580667
0.0580667
0.0580666
0.0580666
0.0580666
0.0580666
0.0580666
0.0580666
0.0580666
0.0580666
0.0580666
0.0580666
0.0580666
0.0580666
0.0580666
0.0580666
0.0580666
0.0580666
0.0580666
0.0580666
0.0580666
0.0580666
0.0580666
0.0580666
0.0580666
0.0580666
0.0580666
0.0580666
0.0580666
0.0580666
0.0580666
0.0580666
0.0580666
0.0580666
0.0580666
0.0580666
0.0580666
0.0580666
0.0580666
0.0580666
0.0580666
0.0580666
0.0580666
0.0580666
0.0580666
0.0580666
0.0580666
0.0580666
0.0580666
0.0580665
0.0580665
0.0580665
0.0580665
0.0580665
0.0580665
0.0580665
0.0580665
0.0580665
0.0580665
0.0580665
0.0580665
0.0580665
0.0580665
0.0580665
0.0580665
0.0580665
0.0580665
0.0580665
0.0580665
0.0580665
0.0580665
0.0580665
0.0580665
0.0580665
0.0580665
0.0580665
0.0580665
0.0580665
0.0580665
0.0580665
0.0580665
0.0580665
0.0580665
0.0580664
0.0580664
0.0580664
0.0580664
0.0580664
0.0580664
0.0580664
0.0580664
0.0580664
0.0580664
0.0580664
0.0580664
0.0580664
0.0580664
0.0580664
0.0580664
0.0580664
0.0580664
0.0580664
0.0580664
0.0580664
0.0580664
0.0580664
0.0580664
0.0580664
0.0580664
0.0580664
0.0580663
0.0580663
0.0580663
0.0580663
0.0580663
0.0580663
0.0580663
0.0580663
0.0580663
0.0580663
0.0580663
0.0580663
0.0580663
0.0580663
0.0580663
0.0580663
0.0580663
0.0580663
0.0580663
0.0580663
0.0580662
0.0580662
0.0580662
0.0580662
0.0580662
0.0580662
0.0580662
0.0580662
0.0580662
0.0580662
0.0580662
0.0580662
0.0580662
0.0580662
0.0580662
0.0580662
0.0580662
0.0580661
0.0580661
0.0580661
0.0580661
0.0580661
0.0580661
0.0580661
0.0580661
0.0580661
0.0580661
0.0580661
0.0580661
0.0580661
0.0580661
0.058066
0.058066
0.058066
0.058066
0.058066
0.058066
0.058066
0.058066
0.058066
0.058066
0.058066
0.058066
0.0580659
0.0580659
0.0580659
0.0580659
0.0580659
0.0580659
0.0580659
0.0580659
0.0580659
0.0580659
0.0580658
0.0580658
0.0580658
0.0580658
0.0580658
0.0580658
0.0580658
0.0580658
0.0580658
0.0580657
0.0580657
0.0580657
0.0580657
0.0580657
0.0580657
0.0580657
0.0580656
0.0580656
0.0580656
0.0580656
0.0580656
0.0580656
0.0580656
0.0580655
0.0580655
0.0580655
0.0580655
0.0580655
0.0580655
0.0580654
0.0580654
0.0580654
0.0580654
0.0580654
0.0580653
0.0580653
0.0580653
0.0580653
0.0580653
0.0580652
0.0580652
0.0580652
0.0580652
0.0580651
0.0580651
0.0580651
0.0580651
0.058065
0.058065
0.058065
0.0580649
0.0580649
0.0580649
0.0580648
0.0580648
0.0580648
0.0580647
0.0580647
0.0580647
0.0580646
0.0580646
0.0580646
0.0580645
0.0580645
0.0580644
0.0580644
0.0580643
0.0580643
0.0580642
0.0580642
0.0580641
0.0580641
0.058064
0.0580639
0.0580639
0.0580638
0.0580637
0.0580637
0.0580636
0.0580635
0.0580634
0.0580634
0.0580633
0.0580632
0.0580631
0.058063
0.0580629
0.0580628
0.0580626
0.0580625
0.0580624
0.0580622
0.0580621
0.0580619
0.0580618
0.0580616
0.0580614
0.0580612
0.058061
0.0580608
0.0580605
0.0580603
0.05806
0.0580597
0.0580594
0.058059
0.0580586
0.0580582
0.0580577
0.0580572
0.0580566
0.058056
0.0580552
0.0580544
0.0580534
0.0580523
0.058051
0.0580494
0.0580476
0.0580454
0.0580427
0.0580393
0.058035
0.0580293
0.0580215
0.0580101
0.0579923
0.0579623
0.0579062
0.0577865
0.0574796
0.0565052
0.0527876
0.030318
0.0149385
0.00734229
0.0036223
0.00179474
0.000892168
0.000444486
0.000221767
0.00011075
5.53429e-05
2.76674e-05
1.3836e-05
6.92081e-06
3.46244e-06
1.7325e-06
8.66998e-07
4.33932e-07
2.17217e-07
1.08758e-07
5.44729e-08
2.73109e-08
1.3695e-08
6.88937e-09
3.48765e-09
1.77909e-09
9.28987e-10
6.32728e-10
4.2021e-10
2.52825e-10
1.67805e-10
1.25982e-10
1.10495e-10
9.98742e-11
9.33708e-11
9.02576e-11
8.84545e-11
8.74769e-11
8.6907e-11
8.65653e-11
8.63503e-11
8.62185e-11
8.61497e-11
8.61065e-11
8.6083e-11
8.60638e-11
8.60566e-11
8.60505e-11
8.60471e-11
8.60452e-11
8.60444e-11
8.60438e-11
8.60436e-11
8.60436e-11
8.60436e-11
8.60437e-11
8.60439e-11
8.6044e-11
8.60442e-11
8.60444e-11
8.60446e-11
8.60447e-11
8.60449e-11
8.60451e-11
8.60453e-11
8.60455e-11
8.60457e-11
8.60459e-11
8.60461e-11
8.60463e-11
8.60465e-11
8.60467e-11
8.60468e-11
8.6047e-11
8.60472e-11
8.60474e-11
8.60475e-11
8.60478e-11
8.60479e-11
8.60482e-11
8.60484e-11
8.60486e-11
8.60488e-11
8.60489e-11
8.60491e-11
8.60493e-11
8.60495e-11
8.60497e-11
8.60498e-11
8.605e-11
8.60502e-11
8.60504e-11
8.60506e-11
8.60507e-11
8.60509e-11
8.60511e-11
8.60513e-11
8.60515e-11
8.60518e-11
8.60519e-11
8.60521e-11
8.60522e-11
8.60524e-11
8.60526e-11
8.60529e-11
8.60531e-11
8.60532e-11
8.60534e-11
8.60537e-11
8.60538e-11
8.6054e-11
8.60542e-11
8.60544e-11
8.60546e-11
8.60548e-11
8.6055e-11
8.60551e-11
8.60553e-11
8.60555e-11
8.60557e-11
8.60559e-11
8.60561e-11
8.60563e-11
8.60565e-11
8.60567e-11
8.60569e-11
8.6057e-11
8.60572e-11
8.60574e-11
8.60576e-11
8.60578e-11
8.60579e-11
8.60582e-11
8.60584e-11
8.60585e-11
8.60587e-11
8.60589e-11
8.60591e-11
8.60593e-11
8.60595e-11
8.60596e-11
8.60598e-11
8.606e-11
8.60602e-11
8.60605e-11
8.60606e-11
8.60608e-11
8.6061e-11
8.60612e-11
8.60614e-11
8.60615e-11
8.60618e-11
8.60619e-11
8.60621e-11
8.60623e-11
8.60625e-11
8.60627e-11
8.6063e-11
8.60631e-11
8.60634e-11
8.60635e-11
8.60637e-11
8.60639e-11
8.60641e-11
8.60642e-11
8.60645e-11
8.60646e-11
8.60649e-11
8.6065e-11
8.60653e-11
8.60654e-11
8.60656e-11
8.60658e-11
8.6066e-11
8.60662e-11
8.60664e-11
8.60666e-11
8.60668e-11
8.6067e-11
8.60672e-11
8.60674e-11
8.60676e-11
8.60678e-11
8.60679e-11
8.60682e-11
8.60683e-11
8.60685e-11
8.60688e-11
8.60689e-11
8.60691e-11
8.60692e-11
8.60694e-11
8.60697e-11
8.60699e-11
8.60701e-11
8.60703e-11
8.60705e-11
8.60707e-11
8.60709e-11
8.60711e-11
8.60713e-11
8.60714e-11
8.60716e-11
8.60718e-11
8.6072e-11
8.60722e-11
8.60724e-11
8.60726e-11
8.60729e-11
8.6073e-11
8.60732e-11
8.60734e-11
8.60735e-11
8.60738e-11
8.6074e-11
8.60741e-11
8.60744e-11
8.60746e-11
8.60748e-11
8.60749e-11
8.60751e-11
8.60753e-11
8.60756e-11
8.60758e-11
8.60761e-11
8.60763e-11
8.60765e-11
8.60767e-11
8.6077e-11
8.60772e-11
8.60774e-11
8.60776e-11
8.60778e-11
8.60779e-11
8.60782e-11
8.60784e-11
8.60785e-11
8.60787e-11
8.60789e-11
8.60791e-11
8.60792e-11
8.60795e-11
8.60796e-11
8.60799e-11
8.60801e-11
8.60803e-11
8.60805e-11
8.60806e-11
8.60809e-11
8.60811e-11
8.60813e-11
8.60814e-11
8.60817e-11
8.60819e-11
8.60821e-11
8.60822e-11
8.60824e-11
8.60826e-11
8.60828e-11
8.60831e-11
8.60833e-11
8.60835e-11
8.60837e-11
8.60839e-11
8.60841e-11
8.60844e-11
8.60845e-11
8.60847e-11
8.60849e-11
8.60851e-11
8.60854e-11
8.60856e-11
8.60858e-11
8.6086e-11
8.60862e-11
8.60864e-11
8.60866e-11
8.60868e-11
8.6087e-11
8.60872e-11
8.60874e-11
8.60877e-11
8.60878e-11
8.6088e-11
8.60882e-11
8.60884e-11
8.60885e-11
8.60888e-11
8.6089e-11
8.60892e-11
8.60894e-11
8.60896e-11
8.60898e-11
8.60901e-11
8.60903e-11
8.60905e-11
8.60907e-11
8.60909e-11
8.60911e-11
8.60914e-11
8.60917e-11
8.60918e-11
8.6092e-11
8.60922e-11
8.60924e-11
8.60926e-11
8.60928e-11
8.60929e-11
8.60932e-11
8.60933e-11
8.60935e-11
8.60938e-11
8.6094e-11
8.60942e-11
8.60943e-11
8.60947e-11
8.60949e-11
8.6095e-11
8.60953e-11
8.60954e-11
8.60956e-11
8.60959e-11
8.60961e-11
8.60963e-11
8.60966e-11
8.60968e-11
8.6097e-11
8.60972e-11
8.60974e-11
8.60976e-11
8.60978e-11
8.60979e-11
8.60982e-11
8.60984e-11
8.60986e-11
8.60988e-11
8.60991e-11
8.60992e-11
8.60995e-11
8.60997e-11
8.60998e-11
8.61e-11
8.61003e-11
8.61004e-11
8.61006e-11
8.61009e-11
8.61011e-11
8.61013e-11
8.61015e-11
8.61018e-11
8.6102e-11
8.61021e-11
8.61024e-11
8.61026e-11
8.61028e-11
8.6103e-11
8.61032e-11
8.61034e-11
8.61037e-11
8.61038e-11
8.61041e-11
8.61043e-11
8.61045e-11
8.61047e-11
8.61048e-11
8.61052e-11
8.61053e-11
8.61055e-11
8.61058e-11
8.6106e-11
8.61062e-11
8.61064e-11
8.61066e-11
8.61068e-11
8.6107e-11
8.61072e-11
8.61074e-11
8.61077e-11
8.61078e-11
8.61081e-11
8.61083e-11
8.61085e-11
8.61087e-11
8.61089e-11
8.61092e-11
8.61094e-11
8.61096e-11
8.61098e-11
8.61099e-11
8.61101e-11
8.61104e-11
8.61107e-11
8.61108e-11
8.61111e-11
8.61112e-11
8.61114e-11
8.61117e-11
8.61119e-11
8.6112e-11
8.61123e-11
8.61125e-11
8.61127e-11
8.61129e-11
8.61132e-11
8.61133e-11
8.61135e-11
8.61138e-11
8.6114e-11
8.61142e-11
8.61144e-11
8.61146e-11
8.61148e-11
8.6115e-11
8.61152e-11
8.61154e-11
8.61156e-11
8.61159e-11
8.61161e-11
8.61163e-11
8.61166e-11
8.61168e-11
8.6117e-11
8.61172e-11
8.61174e-11
8.61177e-11
8.61179e-11
8.61181e-11
8.61183e-11
8.61185e-11
8.61187e-11
8.61189e-11
8.61191e-11
8.61194e-11
8.61195e-11
8.61198e-11
8.612e-11
8.61202e-11
8.61204e-11
8.61206e-11
8.61208e-11
8.6121e-11
8.61212e-11
8.61215e-11
8.61217e-11
8.61219e-11
8.61221e-11
8.61223e-11
8.61225e-11
8.61227e-11
8.61229e-11
8.61232e-11
8.61234e-11
8.61237e-11
8.61239e-11
8.61241e-11
8.61243e-11
8.61245e-11
8.61248e-11
8.6125e-11
8.61252e-11
8.61254e-11
8.61256e-11
8.61258e-11
8.6126e-11
8.61263e-11
8.61264e-11
8.61266e-11
8.61269e-11
8.61271e-11
8.61273e-11
8.61275e-11
8.61277e-11
8.61279e-11
8.61281e-11
8.61283e-11
8.61285e-11
8.61287e-11
8.6129e-11
8.61292e-11
8.61294e-11
8.61296e-11
8.61298e-11
8.61301e-11
8.61302e-11
8.61305e-11
8.61307e-11
8.61309e-11
8.61311e-11
8.61314e-11
8.61316e-11
8.61318e-11
8.61321e-11
8.61323e-11
8.61325e-11
8.61328e-11
8.61331e-11
8.61333e-11
8.61335e-11
8.61337e-11
8.6134e-11
8.61342e-11
8.61344e-11
8.61346e-11
8.61348e-11
8.6135e-11
8.61353e-11
8.61354e-11
8.61356e-11
8.61359e-11
8.61361e-11
8.61363e-11
8.61365e-11
8.61366e-11
8.61369e-11
8.61371e-11
8.61373e-11
8.61375e-11
8.61377e-11
8.6138e-11
8.61381e-11
8.61384e-11
8.61386e-11
8.61388e-11
8.61391e-11
8.61393e-11
8.61395e-11
8.61397e-11
8.61399e-11
8.61401e-11
8.61404e-11
8.61406e-11
8.61408e-11
8.6141e-11
8.61412e-11
8.61414e-11
8.61416e-11
8.61419e-11
8.61421e-11
8.61424e-11
8.61426e-11
8.61428e-11
8.6143e-11
8.61432e-11
8.61435e-11
8.61436e-11
8.61439e-11
8.61441e-11
8.61444e-11
8.61446e-11
8.61448e-11
8.6145e-11
8.61453e-11
8.61455e-11
8.61458e-11
8.61461e-11
8.61462e-11
8.61464e-11
8.61467e-11
8.61469e-11
8.61472e-11
8.61473e-11
8.61476e-11
8.61478e-11
8.6148e-11
8.61483e-11
8.61486e-11
8.61488e-11
8.61491e-11
8.61493e-11
8.61495e-11
8.61498e-11
8.615e-11
8.61501e-11
8.61503e-11
8.61505e-11
8.61507e-11
8.61509e-11
8.61511e-11
8.61513e-11
8.61515e-11
8.61518e-11
8.6152e-11
8.61523e-11
8.61525e-11
8.61527e-11
8.61529e-11
8.61532e-11
8.61534e-11
8.61535e-11
8.61538e-11
8.6154e-11
8.61542e-11
)
;

boundaryField
{
    fixedWall
    {
        type            zeroGradient;
    }
    outlet
    {
        type            inletOutlet;
        inletValue      uniform 0;
        value           uniform 8.61542e-11;
    }
    defaultFaces
    {
        type            empty;
    }
}


// ************************************************************************* //
