/*--------------------------------*- C++ -*----------------------------------*\
| =========                 |                                                 |
| \\      /  F ield         | OpenFOAM: The Open Source CFD Toolbox           |
|  \\    /   O peration     | Version:  2406                                  |
|   \\  /    A nd           | Website:  www.openfoam.com                      |
|    \\/     M anipulation  |                                                 |
\*---------------------------------------------------------------------------*/
FoamFile
{
    version     2.0;
    format      ascii;
    arch        "LSB;label=32;scalar=64";
    class       volVectorField;
    location    "2.6";
    object      U;
}
// * * * * * * * * * * * * * * * * * * * * * * * * * * * * * * * * * * * * * //

dimensions      [0 1 -1 0 0 0 0];

internalField   nonuniform List<vector> 
1000
(
(-8.90711e-06 0 0)
(-3.93488e-05 0 0)
(-9.38059e-05 0 0)
(-0.000162618 0 0)
(-0.000240868 0 0)
(-0.000325862 0 0)
(-0.000415827 0 0)
(-0.000509409 0 0)
(-0.00060555 0 0)
(-0.000703418 0 0)
(-0.000802347 0 0)
(-0.000901792 0 0)
(-0.0010013 0 0)
(-0.0011005 0 0)
(-0.00119906 0 0)
(-0.00129671 0 0)
(-0.00139321 0 0)
(-0.00148837 0 0)
(-0.00158199 0 0)
(-0.00167393 0 0)
(-0.00176406 0 0)
(-0.00185225 0 0)
(-0.00193842 0 0)
(-0.00202248 0 0)
(-0.00210437 0 0)
(-0.00218401 0 0)
(-0.00226138 0 0)
(-0.00233642 0 0)
(-0.00240911 0 0)
(-0.00247944 0 0)
(-0.0025474 0 0)
(-0.00261298 0 0)
(-0.00267618 0 0)
(-0.00273701 0 0)
(-0.0027955 0 0)
(-0.00285166 0 0)
(-0.00290552 0 0)
(-0.00295711 0 0)
(-0.00300647 0 0)
(-0.00305363 0 0)
(-0.00309863 0 0)
(-0.00314152 0 0)
(-0.00318236 0 0)
(-0.00322118 0 0)
(-0.00325804 0 0)
(-0.003293 0 0)
(-0.00332611 0 0)
(-0.00335744 0 0)
(-0.00338702 0 0)
(-0.00341494 0 0)
(-0.00344124 0 0)
(-0.00346599 0 0)
(-0.00348925 0 0)
(-0.00351108 0 0)
(-0.00353153 0 0)
(-0.00355066 0 0)
(-0.00356854 0 0)
(-0.00358522 0 0)
(-0.00360076 0 0)
(-0.00361518 0 0)
(-0.00362853 0 0)
(-0.00364092 0 0)
(-0.00365243 0 0)
(-0.00366311 0 0)
(-0.00367298 0 0)
(-0.00368206 0 0)
(-0.00369041 0 0)
(-0.00369807 0 0)
(-0.00370509 0 0)
(-0.00371151 0 0)
(-0.00371736 0 0)
(-0.00372269 0 0)
(-0.00372754 0 0)
(-0.00373194 0 0)
(-0.0037359 0 0)
(-0.00373948 0 0)
(-0.0037427 0 0)
(-0.00374559 0 0)
(-0.00374817 0 0)
(-0.00375047 0 0)
(-0.00375251 0 0)
(-0.00375431 0 0)
(-0.00375589 0 0)
(-0.00375727 0 0)
(-0.00375848 0 0)
(-0.00375951 0 0)
(-0.00376041 0 0)
(-0.00376116 0 0)
(-0.00376179 0 0)
(-0.00376231 0 0)
(-0.00376273 0 0)
(-0.00376307 0 0)
(-0.00376331 0 0)
(-0.00376349 0 0)
(-0.0037636 0 0)
(-0.00376366 0 0)
(-0.00376367 0 0)
(-0.00376363 0 0)
(-0.00376355 0 0)
(-0.00376344 0 0)
(-0.0037633 0 0)
(-0.00376313 0 0)
(-0.00376294 0 0)
(-0.00376273 0 0)
(-0.0037625 0 0)
(-0.00376226 0 0)
(-0.003762 0 0)
(-0.00376173 0 0)
(-0.00376145 0 0)
(-0.00376117 0 0)
(-0.00376088 0 0)
(-0.00376059 0 0)
(-0.00376029 0 0)
(-0.00375999 0 0)
(-0.00375968 0 0)
(-0.00375938 0 0)
(-0.00375907 0 0)
(-0.00375876 0 0)
(-0.00375846 0 0)
(-0.00375815 0 0)
(-0.00375785 0 0)
(-0.00375754 0 0)
(-0.00375724 0 0)
(-0.00375694 0 0)
(-0.00375664 0 0)
(-0.00375634 0 0)
(-0.00375605 0 0)
(-0.00375575 0 0)
(-0.00375546 0 0)
(-0.00375517 0 0)
(-0.00375489 0 0)
(-0.0037546 0 0)
(-0.00375432 0 0)
(-0.00375404 0 0)
(-0.00375377 0 0)
(-0.00375349 0 0)
(-0.00375322 0 0)
(-0.00375295 0 0)
(-0.00375268 0 0)
(-0.00375242 0 0)
(-0.00375216 0 0)
(-0.0037519 0 0)
(-0.00375164 0 0)
(-0.00375138 0 0)
(-0.00375113 0 0)
(-0.00375087 0 0)
(-0.00375062 0 0)
(-0.00375037 0 0)
(-0.00375012 0 0)
(-0.00374988 0 0)
(-0.00374963 0 0)
(-0.00374939 0 0)
(-0.00374915 0 0)
(-0.0037489 0 0)
(-0.00374866 0 0)
(-0.00374842 0 0)
(-0.00374818 0 0)
(-0.00374794 0 0)
(-0.00374771 0 0)
(-0.00374747 0 0)
(-0.00374723 0 0)
(-0.00374699 0 0)
(-0.00374676 0 0)
(-0.00374652 0 0)
(-0.00374628 0 0)
(-0.00374605 0 0)
(-0.00374581 0 0)
(-0.00374557 0 0)
(-0.00374534 0 0)
(-0.0037451 0 0)
(-0.00374487 0 0)
(-0.00374463 0 0)
(-0.0037444 0 0)
(-0.00374416 0 0)
(-0.00374393 0 0)
(-0.00374369 0 0)
(-0.00374346 0 0)
(-0.00374322 0 0)
(-0.00374299 0 0)
(-0.00374275 0 0)
(-0.00374252 0 0)
(-0.00374228 0 0)
(-0.00374205 0 0)
(-0.00374182 0 0)
(-0.00374158 0 0)
(-0.00374135 0 0)
(-0.00374111 0 0)
(-0.00374088 0 0)
(-0.00374065 0 0)
(-0.00374041 0 0)
(-0.00374018 0 0)
(-0.00373995 0 0)
(-0.00373971 0 0)
(-0.00373948 0 0)
(-0.00373925 0 0)
(-0.00373901 0 0)
(-0.00373878 0 0)
(-0.00373855 0 0)
(-0.00373831 0 0)
(-0.00373808 0 0)
(-0.00373784 0 0)
(-0.00373761 0 0)
(-0.00373737 0 0)
(-0.00373714 0 0)
(-0.0037369 0 0)
(-0.00373666 0 0)
(-0.00373643 0 0)
(-0.00373619 0 0)
(-0.00373595 0 0)
(-0.00373571 0 0)
(-0.00373548 0 0)
(-0.00373524 0 0)
(-0.003735 0 0)
(-0.00373476 0 0)
(-0.00373452 0 0)
(-0.00373427 0 0)
(-0.00373403 0 0)
(-0.00373379 0 0)
(-0.00373354 0 0)
(-0.0037333 0 0)
(-0.00373306 0 0)
(-0.00373281 0 0)
(-0.00373256 0 0)
(-0.00373232 0 0)
(-0.00373207 0 0)
(-0.00373182 0 0)
(-0.00373157 0 0)
(-0.00373132 0 0)
(-0.00373107 0 0)
(-0.00373082 0 0)
(-0.00373057 0 0)
(-0.00373031 0 0)
(-0.00373006 0 0)
(-0.00372981 0 0)
(-0.00372955 0 0)
(-0.0037293 0 0)
(-0.00372904 0 0)
(-0.00372879 0 0)
(-0.00372853 0 0)
(-0.00372828 0 0)
(-0.00372803 0 0)
(-0.00372777 0 0)
(-0.00372752 0 0)
(-0.00372727 0 0)
(-0.00372702 0 0)
(-0.00372677 0 0)
(-0.00372652 0 0)
(-0.00372627 0 0)
(-0.00372602 0 0)
(-0.00372577 0 0)
(-0.00372553 0 0)
(-0.00372528 0 0)
(-0.00372504 0 0)
(-0.0037248 0 0)
(-0.00372456 0 0)
(-0.00372431 0 0)
(-0.00372407 0 0)
(-0.00372383 0 0)
(-0.00372359 0 0)
(-0.00372335 0 0)
(-0.0037231 0 0)
(-0.00372286 0 0)
(-0.00372262 0 0)
(-0.00372237 0 0)
(-0.00372212 0 0)
(-0.00372187 0 0)
(-0.00372162 0 0)
(-0.00372137 0 0)
(-0.00372111 0 0)
(-0.00372085 0 0)
(-0.00372059 0 0)
(-0.00372033 0 0)
(-0.00372006 0 0)
(-0.00371979 0 0)
(-0.00371952 0 0)
(-0.00371925 0 0)
(-0.00371897 0 0)
(-0.0037187 0 0)
(-0.00371842 0 0)
(-0.00371814 0 0)
(-0.00371786 0 0)
(-0.00371759 0 0)
(-0.00371731 0 0)
(-0.00371703 0 0)
(-0.00371675 0 0)
(-0.00371647 0 0)
(-0.00371619 0 0)
(-0.00371591 0 0)
(-0.00371564 0 0)
(-0.00371536 0 0)
(-0.00371509 0 0)
(-0.00371481 0 0)
(-0.00371454 0 0)
(-0.00371427 0 0)
(-0.003714 0 0)
(-0.00371373 0 0)
(-0.00371346 0 0)
(-0.0037132 0 0)
(-0.00371293 0 0)
(-0.00371267 0 0)
(-0.0037124 0 0)
(-0.00371214 0 0)
(-0.00371188 0 0)
(-0.00371162 0 0)
(-0.00371136 0 0)
(-0.0037111 0 0)
(-0.00371084 0 0)
(-0.00371058 0 0)
(-0.00371033 0 0)
(-0.00371007 0 0)
(-0.00370982 0 0)
(-0.00370956 0 0)
(-0.00370931 0 0)
(-0.00370905 0 0)
(-0.0037088 0 0)
(-0.00370854 0 0)
(-0.00370828 0 0)
(-0.00370802 0 0)
(-0.00370775 0 0)
(-0.00370749 0 0)
(-0.00370722 0 0)
(-0.00370694 0 0)
(-0.00370666 0 0)
(-0.00370637 0 0)
(-0.00370608 0 0)
(-0.00370578 0 0)
(-0.00370548 0 0)
(-0.00370517 0 0)
(-0.00370486 0 0)
(-0.00370454 0 0)
(-0.00370422 0 0)
(-0.0037039 0 0)
(-0.00370359 0 0)
(-0.00370327 0 0)
(-0.00370296 0 0)
(-0.00370265 0 0)
(-0.00370234 0 0)
(-0.00370205 0 0)
(-0.00370176 0 0)
(-0.00370148 0 0)
(-0.00370121 0 0)
(-0.00370094 0 0)
(-0.00370068 0 0)
(-0.00370042 0 0)
(-0.00370016 0 0)
(-0.00369991 0 0)
(-0.00369964 0 0)
(-0.00369938 0 0)
(-0.0036991 0 0)
(-0.00369881 0 0)
(-0.00369851 0 0)
(-0.0036982 0 0)
(-0.00369787 0 0)
(-0.00369753 0 0)
(-0.00369717 0 0)
(-0.0036968 0 0)
(-0.00369642 0 0)
(-0.00369603 0 0)
(-0.00369563 0 0)
(-0.00369523 0 0)
(-0.00369481 0 0)
(-0.00369439 0 0)
(-0.00369394 0 0)
(-0.00369348 0 0)
(-0.00369309 0 0)
(-0.00369243 0 0)
(-0.00369196 0 0)
(-0.00369151 0 0)
(-0.00369081 0 0)
(-0.00369025 0 0)
(-0.00368956 0 0)
(-0.0036889 0 0)
(-0.0036882 0 0)
(-0.00368748 0 0)
(-0.00368676 0 0)
(-0.00368608 0 0)
(-0.00368534 0 0)
(-0.00368472 0 0)
(-0.00368395 0 0)
(-0.00368318 0 0)
(-0.00368262 0 0)
(-0.00368181 0 0)
(-0.00368098 0 0)
(-0.0036802 0 0)
(-0.00367932 0 0)
(-0.00367836 0 0)
(-0.00367743 0 0)
(-0.00367652 0 0)
(-0.0036756 0 0)
(-0.00367485 0 0)
(-0.00367408 0 0)
(-0.00367327 0 0)
(-0.00367259 0 0)
(-0.00367133 0 0)
(-0.00366938 0 0)
(-0.00366634 0 0)
(-0.00366162 0 0)
(-0.00365471 0 0)
(-0.00364507 0 0)
(-0.00363335 0 0)
(-0.00361742 0 0)
(-0.00359517 0 0)
(-0.00356642 0 0)
(-0.00350906 0 0)
(-0.00353075 0 0)
(-0.00351529 0 0)
(-0.0033696 0 0)
(-0.00203135 0 0)
(0.0113877 0 0)
(0.0416174 0 0)
(0.0712267 0 0)
(0.0887109 0 0)
(0.0972151 0 0)
(0.10122 0 0)
(0.103008 0 0)
(0.10387 0 0)
(0.104293 0 0)
(0.104496 0 0)
(0.104584 0 0)
(0.104665 0 0)
(0.104699 0 0)
(0.104712 0 0)
(0.104708 0 0)
(0.104734 0 0)
(0.104723 0 0)
(0.104728 0 0)
(0.104724 0 0)
(0.104727 0 0)
(0.104735 0 0)
(0.104717 0 0)
(0.104736 0 0)
(0.104751 0 0)
(0.104704 0 0)
(0.104738 0 0)
(0.104739 0 0)
(0.104709 0 0)
(0.104749 0 0)
(0.104743 0 0)
(0.104713 0 0)
(0.104737 0 0)
(0.104743 0 0)
(0.10472 0 0)
(0.104743 0 0)
(0.104725 0 0)
(0.104741 0 0)
(0.104743 0 0)
(0.104712 0 0)
(0.104751 0 0)
(0.104749 0 0)
(0.104705 0 0)
(0.104755 0 0)
(0.104748 0 0)
(0.104702 0 0)
(0.104759 0 0)
(0.104746 0 0)
(0.10472 0 0)
(0.10475 0 0)
(0.104744 0 0)
(0.104722 0 0)
(0.104742 0 0)
(0.104738 0 0)
(0.104742 0 0)
(0.104745 0 0)
(0.104726 0 0)
(0.104741 0 0)
(0.104754 0 0)
(0.104726 0 0)
(0.104741 0 0)
(0.104742 0 0)
(0.104741 0 0)
(0.104747 0 0)
(0.10473 0 0)
(0.104751 0 0)
(0.104739 0 0)
(0.104745 0 0)
(0.104737 0 0)
(0.104742 0 0)
(0.104739 0 0)
(0.10475 0 0)
(0.104752 0 0)
(0.104723 0 0)
(0.104752 0 0)
(0.104763 0 0)
(0.104718 0 0)
(0.104753 0 0)
(0.104762 0 0)
(0.104717 0 0)
(0.104764 0 0)
(0.104746 0 0)
(0.104749 0 0)
(0.104728 0 0)
(0.104753 0 0)
(0.104757 0 0)
(0.104728 0 0)
(0.104765 0 0)
(0.104736 0 0)
(0.104758 0 0)
(0.104749 0 0)
(0.104727 0 0)
(0.104767 0 0)
(0.104753 0 0)
(0.104719 0 0)
(0.10477 0 0)
(0.104758 0 0)
(0.104732 0 0)
(0.104762 0 0)
(0.104755 0 0)
(0.104737 0 0)
(0.104753 0 0)
(0.104751 0 0)
(0.104757 0 0)
(0.104759 0 0)
(0.104728 0 0)
(0.104762 0 0)
(0.104758 0 0)
(0.104756 0 0)
(0.104735 0 0)
(0.104751 0 0)
(0.10477 0 0)
(0.104736 0 0)
(0.104765 0 0)
(0.104755 0 0)
(0.104753 0 0)
(0.104742 0 0)
(0.104764 0 0)
(0.104766 0 0)
(0.104738 0 0)
(0.10476 0 0)
(0.104766 0 0)
(0.104741 0 0)
(0.10476 0 0)
(0.104762 0 0)
(0.104758 0 0)
(0.104742 0 0)
(0.104752 0 0)
(0.104779 0 0)
(0.10475 0 0)
(0.104741 0 0)
(0.104769 0 0)
(0.104767 0 0)
(0.104744 0 0)
(0.104762 0 0)
(0.104768 0 0)
(0.10474 0 0)
(0.104766 0 0)
(0.104772 0 0)
(0.104745 0 0)
(0.104765 0 0)
(0.104771 0 0)
(0.104743 0 0)
(0.104765 0 0)
(0.10476 0 0)
(0.104761 0 0)
(0.104762 0 0)
(0.104757 0 0)
(0.104759 0 0)
(0.104772 0 0)
(0.104764 0 0)
(0.104738 0 0)
(0.104784 0 0)
(0.104768 0 0)
(0.104742 0 0)
(0.104775 0 0)
(0.104755 0 0)
(0.104765 0 0)
(0.104778 0 0)
(0.104746 0 0)
(0.104768 0 0)
(0.104774 0 0)
(0.104751 0 0)
(0.104766 0 0)
(0.104768 0 0)
(0.104766 0 0)
(0.104758 0 0)
(0.104776 0 0)
(0.104767 0 0)
(0.104747 0 0)
(0.104779 0 0)
(0.10476 0 0)
(0.104773 0 0)
(0.104773 0 0)
(0.104752 0 0)
(0.10477 0 0)
(0.104778 0 0)
(0.104751 0 0)
(0.104777 0 0)
(0.104776 0 0)
(0.104753 0 0)
(0.104776 0 0)
(0.104763 0 0)
(0.104775 0 0)
(0.104776 0 0)
(0.10475 0 0)
(0.104777 0 0)
(0.104786 0 0)
(0.104745 0 0)
(0.104777 0 0)
(0.104779 0 0)
(0.104761 0 0)
(0.104783 0 0)
(0.104759 0 0)
(0.104776 0 0)
(0.104778 0 0)
(0.10476 0 0)
(0.104776 0 0)
(0.10477 0 0)
(0.104771 0 0)
(0.10477 0 0)
(0.104774 0 0)
(0.104781 0 0)
(0.104763 0 0)
(0.104771 0 0)
(0.104775 0 0)
(0.104774 0 0)
(0.104775 0 0)
(0.104776 0 0)
(0.104764 0 0)
(0.104774 0 0)
(0.104784 0 0)
(0.104772 0 0)
(0.104757 0 0)
(0.104789 0 0)
(0.104777 0 0)
(0.10476 0 0)
(0.104788 0 0)
(0.104782 0 0)
(0.104764 0 0)
(0.104778 0 0)
(0.104774 0 0)
(0.104771 0 0)
(0.10479 0 0)
(0.104766 0 0)
(0.104779 0 0)
(0.10478 0 0)
(0.104782 0 0)
(0.104765 0 0)
(0.104785 0 0)
(0.104779 0 0)
(0.104779 0 0)
(0.104767 0 0)
(0.104786 0 0)
(0.104785 0 0)
(0.104754 0 0)
(0.104798 0 0)
(0.104779 0 0)
(0.104784 0 0)
(0.104764 0 0)
(0.10479 0 0)
(0.104782 0 0)
(0.104766 0 0)
(0.104792 0 0)
(0.104785 0 0)
(0.104763 0 0)
(0.104783 0 0)
(0.104795 0 0)
(0.104762 0 0)
(0.104797 0 0)
(0.104777 0 0)
(0.104765 0 0)
(0.104796 0 0)
(0.104789 0 0)
(0.10477 0 0)
(0.104782 0 0)
(0.104779 0 0)
(0.104793 0 0)
(0.104784 0 0)
(0.104766 0 0)
(0.1048 0 0)
(0.104778 0 0)
(0.10478 0 0)
(0.10478 0 0)
(0.104793 0 0)
(0.104788 0 0)
(0.104771 0 0)
(0.104789 0 0)
(0.104783 0 0)
(0.104782 0 0)
(0.104791 0 0)
(0.104775 0 0)
(0.104786 0 0)
(0.104785 0 0)
(0.104785 0 0)
(0.104799 0 0)
(0.104783 0 0)
(0.10476 0 0)
(0.104797 0 0)
(0.104795 0 0)
(0.104767 0 0)
(0.104802 0 0)
(0.104795 0 0)
(0.104769 0 0)
(0.10479 0 0)
(0.104797 0 0)
(0.104773 0 0)
(0.104795 0 0)
(0.104783 0 0)
(0.104792 0 0)
(0.104793 0 0)
(0.104776 0 0)
(0.104791 0 0)
(0.104798 0 0)
(0.104772 0 0)
(0.10479 0 0)
(0.104799 0 0)
(0.104791 0 0)
(0.10477 0 0)
(0.104792 0 0)
(0.104797 0 0)
(0.104775 0 0)
(0.104803 0 0)
(0.104781 0 0)
(0.104796 0 0)
(0.104797 0 0)
(0.104769 0 0)
(0.104801 0 0)
(0.1048 0 0)
(0.10477 0 0)
(0.104805 0 0)
(0.104793 0 0)
(0.104793 0 0)
(0.104771 0 0)
(0.104792 0 0)
(0.104806 0 0)
(0.104771 0 0)
(0.104807 0 0)
(0.1048 0 0)
(0.104775 0 0)
(0.104796 0 0)
(0.104798 0 0)
(0.10478 0 0)
(0.104795 0 0)
(0.104797 0 0)
(0.104801 0 0)
(0.104775 0 0)
(0.104796 0 0)
(0.104805 0 0)
(0.104773 0 0)
(0.104806 0 0)
(0.104798 0 0)
(0.104779 0 0)
(0.104799 0 0)
(0.104806 0 0)
(0.104781 0 0)
(0.10479 0 0)
(0.104797 0 0)
(0.104799 0 0)
(0.104801 0 0)
(0.104773 0 0)
(0.104804 0 0)
(0.104807 0 0)
(0.104774 0 0)
(0.10481 0 0)
(0.104793 0 0)
(0.104797 0 0)
(0.104785 0 0)
(0.104791 0 0)
(0.104805 0 0)
(0.104786 0 0)
(0.104807 0 0)
(0.104801 0 0)
(0.104778 0 0)
(0.104799 0 0)
(0.104813 0 0)
(0.104779 0 0)
(0.104801 0 0)
(0.104791 0 0)
(0.104809 0 0)
(0.104802 0 0)
(0.104779 0 0)
(0.104812 0 0)
(0.104799 0 0)
(0.104779 0 0)
(0.104816 0 0)
(0.1048 0 0)
(0.104776 0 0)
(0.104812 0 0)
(0.104805 0 0)
(0.104787 0 0)
(0.1048 0 0)
(0.104794 0 0)
(0.104804 0 0)
(0.104805 0 0)
(0.104788 0 0)
(0.104802 0 0)
(0.104798 0 0)
(0.104801 0 0)
(0.104802 0 0)
(0.104787 0 0)
(0.104803 0 0)
(0.104799 0 0)
(0.104802 0 0)
(0.104803 0 0)
(0.104785 0 0)
(0.104804 0 0)
(0.104803 0 0)
(0.104803 0 0)
(0.104804 0 0)
(0.104787 0 0)
(0.104804 0 0)
(0.104802 0 0)
(0.104802 0 0)
(0.104791 0 0)
(0.10481 0 0)
(0.104807 0 0)
(0.104784 0 0)
(0.104812 0 0)
(0.104804 0 0)
(0.104785 0 0)
(0.104807 0 0)
(0.104815 0 0)
(0.104788 0 0)
(0.104801 0 0)
(0.104797 0 0)
(0.104815 0 0)
(0.104806 0 0)
(0.104786 0 0)
(0.104813 0 0)
(0.1048 0 0)
(0.104802 0 0)
(0.104796 0 0)
(0.104804 0 0)
(0.104813 0 0)
(0.104799 0 0)
(0.104783 0 0)
(0.104814 0 0)
(0.104807 0 0)
(0.104787 0 0)
(0.104819 0 0)
(0.104796 0 0)
(0.104804 0 0)
(0.104802 0 0)
(0.104804 0 0)
(0.104801 0 0)
(0.104806 0 0)
(0.104807 0 0)
(0.104793 0 0)
(0.104806 0 0)
(0.104799 0 0)
(0.104816 0 0)
(0.104807 0 0)
(0.104784 0 0)
(0.104819 0 0)
(0.104804 0 0)
(0.104784 0 0)
(0.104825 0 0)
(0.10481 0 0)
(0.104781 0 0)
(0.104822 0 0)
(0.104812 0 0)
(0.104782 0 0)
(0.104819 0 0)
(0.104808 0 0)
(0.104792 0 0)
(0.104814 0 0)
(0.104802 0 0)
(0.104807 0 0)
(0.104792 0 0)
(0.104818 0 0)
(0.104816 0 0)
(0.104786 0 0)
(0.10482 0 0)
(0.104807 0 0)
(0.104786 0 0)
(0.104821 0 0)
(0.104811 0 0)
(0.104787 0 0)
(0.104821 0 0)
(0.104809 0 0)
(0.10479 0 0)
(0.104821 0 0)
(0.104799 0 0)
(0.104805 0 0)
(0.104815 0 0)
(0.104788 0 0)
(0.104817 0 0)
(0.104819 0 0)
(0.10479 0 0)
(0.104816 0 0)
(0.104805 0 0)
(0.104807 0 0)
(0.104799 0 0)
(0.104811 0 0)
(0.104813 0 0)
(0.104794 0 0)
(0.104813 0 0)
(0.10482 0 0)
(0.104785 0 0)
(0.104812 0 0)
(0.104821 0 0)
(0.104789 0 0)
(0.104817 0 0)
(0.104805 0 0)
(0.10481 0 0)
(0.1048 0 0)
(0.104817 0 0)
(0.104807 0 0)
(0.104791 0 0)
(0.104818 0 0)
(0.104804 0 0)
(0.104814 0 0)
(0.104813 0 0)
(0.10479 0 0)
(0.104814 0 0)
(0.10482 0 0)
(0.104789 0 0)
(0.104816 0 0)
(0.104818 0 0)
(0.104809 0 0)
(0.104778 0 0)
(0.10481 0 0)
(0.104829 0 0)
(0.104794 0 0)
(0.10482 0 0)
(0.104813 0 0)
(0.104796 0 0)
(0.104808 0 0)
(0.104807 0 0)
(0.10482 0 0)
(0.104811 0 0)
(0.104793 0 0)
(0.104826 0 0)
(0.104808 0 0)
(0.104793 0 0)
(0.104816 0 0)
(0.104809 0 0)
(0.104814 0 0)
(0.104813 0 0)
(0.104789 0 0)
(0.104821 0 0)
(0.104817 0 0)
(0.104811 0 0)
(0.104784 0 0)
(0.104812 0 0)
(0.104821 0 0)
(0.104796 0 0)
(0.104822 0 0)
(0.104814 0 0)
(0.104789 0 0)
(0.104809 0 0)
(0.104819 0 0)
(0.104804 0 0)
(0.104817 0 0)
(0.104799 0 0)
(0.104809 0 0)
(0.104809 0 0)
(0.104815 0 0)
(0.104815 0 0)
(0.104796 0 0)
(0.104813 0 0)
(0.104817 0 0)
(0.104795 0 0)
(0.104819 0 0)
(0.104819 0 0)
(0.104787 0 0)
(0.104827 0 0)
(0.104811 0 0)
(0.104796 0 0)
(0.10482 0 0)
(0.104804 0 0)
(0.104817 0 0)
(0.104816 0 0)
(0.104806 0 0)
(0.104786 0 0)
(0.104815 0 0)
(0.104828 0 0)
(0.104793 0 0)
(0.104818 0 0)
(0.104814 0 0)
(0.104801 0 0)
(0.104811 0 0)
(0.104809 0 0)
(0.104816 0 0)
(0.104813 0 0)
(0.104814 0 0)
(0.104801 0 0)
(0.104809 0 0)
(0.104813 0 0)
(0.104808 0 0)
(0.104814 0 0)
(0.104802 0 0)
(0.104818 0 0)
(0.104813 0 0)
(0.104795 0 0)
(0.10482 0 0)
(0.104819 0 0)
(0.104796 0 0)
(0.104816 0 0)
(0.104814 0 0)
(0.1048 0 0)
(0.104811 0 0)
(0.104809 0 0)
(0.104818 0 0)
(0.104813 0 0)
(0.104796 0 0)
(0.104823 0 0)
(0.10481 0 0)
(0.10479 0 0)
(0.104826 0 0)
(0.104817 0 0)
(0.104811 0 0)
)
;

boundaryField
{
    fixedWall
    {
        type            fixedValue;
        value           uniform (0 0 0);
    }
    outlet
    {
        type            pressureInletOutletVelocity;
        value           uniform (0.104811 0 0);
    }
    defaultFaces
    {
        type            empty;
    }
}


// ************************************************************************* //
