/*--------------------------------*- C++ -*----------------------------------*\
| =========                 |                                                 |
| \\      /  F ield         | OpenFOAM: The Open Source CFD Toolbox           |
|  \\    /   O peration     | Version:  2406                                  |
|   \\  /    A nd           | Website:  www.openfoam.com                      |
|    \\/     M anipulation  |                                                 |
\*---------------------------------------------------------------------------*/
FoamFile
{
    version     2.0;
    format      ascii;
    arch        "LSB;label=32;scalar=64";
    class       surfaceScalarField;
    location    "5.7";
    object      phi;
}
// * * * * * * * * * * * * * * * * * * * * * * * * * * * * * * * * * * * * * //

dimensions      [1 0 -1 0 0 0 0];

oriented        oriented;

internalField   nonuniform List<scalar> 
999
(
-4.43254e-08
-1.39138e-07
-2.60872e-07
-3.97323e-07
-5.41658e-07
-6.89846e-07
-8.39418e-07
-9.88822e-07
-1.13707e-06
-1.28352e-06
-1.42776e-06
-1.56954e-06
-1.70868e-06
-1.8451e-06
-1.97875e-06
-2.10962e-06
-2.23771e-06
-2.36305e-06
-2.48567e-06
-2.60561e-06
-2.72291e-06
-2.83762e-06
-2.94978e-06
-3.05945e-06
-3.16666e-06
-3.27147e-06
-3.37392e-06
-3.47405e-06
-3.57191e-06
-3.66754e-06
-3.76098e-06
-3.85227e-06
-3.94145e-06
-4.02856e-06
-4.11363e-06
-4.19669e-06
-4.27779e-06
-4.35695e-06
-4.43421e-06
-4.50959e-06
-4.58314e-06
-4.65488e-06
-4.72483e-06
-4.79304e-06
-4.85952e-06
-4.92431e-06
-4.98743e-06
-5.04891e-06
-5.10878e-06
-5.16706e-06
-5.22379e-06
-5.27898e-06
-5.33267e-06
-5.38487e-06
-5.43562e-06
-5.48493e-06
-5.53285e-06
-5.57938e-06
-5.62456e-06
-5.6684e-06
-5.71095e-06
-5.75221e-06
-5.79221e-06
-5.83098e-06
-5.86855e-06
-5.90493e-06
-5.94015e-06
-5.97424e-06
-6.00722e-06
-6.03911e-06
-6.06994e-06
-6.09973e-06
-6.1285e-06
-6.15628e-06
-6.18309e-06
-6.20895e-06
-6.23389e-06
-6.25793e-06
-6.28109e-06
-6.3034e-06
-6.32488e-06
-6.34554e-06
-6.36542e-06
-6.38453e-06
-6.40289e-06
-6.42053e-06
-6.43747e-06
-6.45373e-06
-6.46932e-06
-6.48427e-06
-6.49861e-06
-6.51233e-06
-6.52548e-06
-6.53806e-06
-6.5501e-06
-6.56161e-06
-6.57262e-06
-6.58313e-06
-6.59317e-06
-6.60275e-06
-6.61189e-06
-6.62061e-06
-6.62892e-06
-6.63682e-06
-6.64428e-06
-6.65159e-06
-6.65845e-06
-6.66493e-06
-6.67106e-06
-6.67691e-06
-6.68247e-06
-6.68775e-06
-6.69278e-06
-6.69754e-06
-6.70207e-06
-6.70636e-06
-6.71042e-06
-6.71428e-06
-6.71793e-06
-6.72138e-06
-6.72465e-06
-6.72774e-06
-6.73067e-06
-6.73343e-06
-6.73604e-06
-6.73851e-06
-6.74085e-06
-6.74306e-06
-6.74514e-06
-6.7471e-06
-6.74896e-06
-6.75072e-06
-6.75237e-06
-6.75393e-06
-6.75541e-06
-6.7568e-06
-6.75812e-06
-6.75936e-06
-6.76054e-06
-6.76164e-06
-6.76269e-06
-6.76368e-06
-6.76462e-06
-6.7655e-06
-6.76634e-06
-6.76714e-06
-6.76789e-06
-6.76861e-06
-6.76928e-06
-6.76993e-06
-6.77054e-06
-6.77112e-06
-6.77167e-06
-6.7722e-06
-6.77271e-06
-6.77319e-06
-6.77365e-06
-6.77409e-06
-6.77452e-06
-6.77493e-06
-6.77532e-06
-6.77569e-06
-6.77606e-06
-6.77641e-06
-6.77675e-06
-6.77708e-06
-6.7774e-06
-6.77771e-06
-6.77801e-06
-6.77831e-06
-6.77859e-06
-6.77888e-06
-6.77915e-06
-6.77942e-06
-6.77968e-06
-6.77994e-06
-6.7802e-06
-6.78045e-06
-6.7807e-06
-6.78094e-06
-6.78118e-06
-6.78142e-06
-6.78165e-06
-6.78189e-06
-6.78212e-06
-6.78234e-06
-6.78257e-06
-6.78279e-06
-6.78302e-06
-6.78324e-06
-6.78346e-06
-6.78368e-06
-6.78389e-06
-6.78411e-06
-6.78432e-06
-6.78454e-06
-6.78475e-06
-6.78496e-06
-6.78517e-06
-6.78538e-06
-6.78559e-06
-6.7858e-06
-6.786e-06
-6.78621e-06
-6.78642e-06
-6.78662e-06
-6.78682e-06
-6.78703e-06
-6.78723e-06
-6.78743e-06
-6.78763e-06
-6.78783e-06
-6.78803e-06
-6.78823e-06
-6.78843e-06
-6.78863e-06
-6.78882e-06
-6.78902e-06
-6.78921e-06
-6.78941e-06
-6.7896e-06
-6.7898e-06
-6.78999e-06
-6.79018e-06
-6.79037e-06
-6.79056e-06
-6.79075e-06
-6.79094e-06
-6.79113e-06
-6.79131e-06
-6.7915e-06
-6.79168e-06
-6.79187e-06
-6.79205e-06
-6.79224e-06
-6.79242e-06
-6.7926e-06
-6.79278e-06
-6.79296e-06
-6.79314e-06
-6.79332e-06
-6.7935e-06
-6.79367e-06
-6.79385e-06
-6.79402e-06
-6.7942e-06
-6.79437e-06
-6.79455e-06
-6.79472e-06
-6.79489e-06
-6.79506e-06
-6.79523e-06
-6.7954e-06
-6.79557e-06
-6.79574e-06
-6.7959e-06
-6.79607e-06
-6.79624e-06
-6.7964e-06
-6.79657e-06
-6.79673e-06
-6.79689e-06
-6.79706e-06
-6.79722e-06
-6.79738e-06
-6.79754e-06
-6.7977e-06
-6.79786e-06
-6.79802e-06
-6.79818e-06
-6.79834e-06
-6.79849e-06
-6.79865e-06
-6.79881e-06
-6.79896e-06
-6.79912e-06
-6.79927e-06
-6.79942e-06
-6.79958e-06
-6.79973e-06
-6.79988e-06
-6.80003e-06
-6.80018e-06
-6.80034e-06
-6.80049e-06
-6.80064e-06
-6.80079e-06
-6.80093e-06
-6.80108e-06
-6.80123e-06
-6.80138e-06
-6.80152e-06
-6.80167e-06
-6.80182e-06
-6.80196e-06
-6.80211e-06
-6.80225e-06
-6.8024e-06
-6.80254e-06
-6.80268e-06
-6.80283e-06
-6.80297e-06
-6.80311e-06
-6.80325e-06
-6.80339e-06
-6.80354e-06
-6.80368e-06
-6.80382e-06
-6.80396e-06
-6.8041e-06
-6.80423e-06
-6.80437e-06
-6.80451e-06
-6.80465e-06
-6.80479e-06
-6.80492e-06
-6.80506e-06
-6.80519e-06
-6.80533e-06
-6.80546e-06
-6.8056e-06
-6.80573e-06
-6.80587e-06
-6.806e-06
-6.80613e-06
-6.80627e-06
-6.8064e-06
-6.80653e-06
-6.80666e-06
-6.80679e-06
-6.80692e-06
-6.80706e-06
-6.80719e-06
-6.80732e-06
-6.80745e-06
-6.80758e-06
-6.80771e-06
-6.80784e-06
-6.80796e-06
-6.80809e-06
-6.80822e-06
-6.80835e-06
-6.80848e-06
-6.8086e-06
-6.80873e-06
-6.80886e-06
-6.80899e-06
-6.80912e-06
-6.80924e-06
-6.80937e-06
-6.8095e-06
-6.80962e-06
-6.80975e-06
-6.80987e-06
-6.81e-06
-6.81013e-06
-6.81025e-06
-6.81038e-06
-6.81051e-06
-6.81063e-06
-6.81076e-06
-6.81089e-06
-6.81101e-06
-6.81114e-06
-6.81127e-06
-6.81139e-06
-6.81152e-06
-6.81165e-06
-6.81177e-06
-6.8119e-06
-6.81203e-06
-6.81216e-06
-6.81229e-06
-6.81241e-06
-6.81254e-06
-6.81267e-06
-6.8128e-06
-6.81293e-06
-6.81305e-06
-6.81318e-06
-6.81331e-06
-6.81344e-06
-6.81357e-06
-6.8137e-06
-6.81382e-06
-6.81395e-06
-6.81408e-06
-6.81421e-06
-6.81434e-06
-6.81446e-06
-6.81459e-06
-6.81472e-06
-6.81485e-06
-6.81497e-06
-6.8151e-06
-6.81522e-06
-6.81535e-06
-6.81547e-06
-6.8156e-06
-6.81572e-06
-6.81584e-06
-6.81596e-06
-6.81609e-06
-6.81621e-06
-6.81633e-06
-6.81644e-06
-6.81656e-06
-6.81668e-06
-6.81679e-06
-6.81691e-06
-6.81702e-06
-6.81713e-06
-6.81725e-06
-6.81736e-06
-6.81747e-06
-6.81757e-06
-6.81768e-06
-6.81779e-06
-6.81789e-06
-6.81799e-06
-6.81809e-06
-6.81819e-06
-6.81829e-06
-6.81839e-06
-6.81849e-06
-6.81858e-06
-6.81868e-06
-6.81877e-06
-6.81886e-06
-6.81895e-06
-6.81904e-06
-6.81913e-06
-6.81921e-06
-6.8193e-06
-6.81938e-06
-6.81946e-06
-6.81955e-06
-6.81963e-06
-6.81971e-06
-6.81979e-06
-6.81986e-06
-6.81994e-06
-6.82002e-06
-6.82009e-06
-6.82017e-06
-6.82024e-06
-6.82032e-06
-6.82039e-06
-6.82047e-06
-6.82054e-06
-6.82061e-06
-6.82068e-06
-6.82075e-06
-6.82083e-06
-6.8209e-06
-6.82097e-06
-6.82104e-06
-6.82111e-06
-6.82118e-06
-6.82125e-06
-6.82132e-06
-6.82139e-06
-6.82146e-06
-6.82153e-06
-6.8216e-06
-6.82167e-06
-6.82174e-06
-6.82181e-06
-6.82188e-06
-6.82195e-06
-6.82202e-06
-6.82209e-06
-6.82216e-06
-6.82223e-06
-6.8223e-06
-6.82237e-06
-6.82243e-06
-6.8225e-06
-6.82257e-06
-6.82264e-06
-6.8227e-06
-6.82277e-06
-6.82284e-06
-6.8229e-06
-6.82297e-06
-6.82303e-06
-6.8231e-06
-6.82316e-06
-6.82323e-06
-6.82329e-06
-6.82335e-06
-6.82341e-06
-6.82347e-06
-6.82353e-06
-6.82359e-06
-6.82365e-06
-6.82371e-06
-6.82376e-06
-6.82382e-06
-6.82388e-06
-6.82393e-06
-6.82398e-06
-6.82404e-06
-6.82409e-06
-6.82414e-06
-6.82419e-06
-6.82424e-06
-6.82429e-06
-6.82434e-06
-6.82438e-06
-6.82443e-06
-6.82448e-06
-6.82452e-06
-6.82457e-06
-6.82461e-06
-6.82466e-06
-6.8247e-06
-6.82474e-06
-6.82478e-06
-6.82483e-06
-6.82487e-06
-6.82491e-06
-6.82495e-06
-6.82499e-06
-6.82503e-06
-6.82506e-06
-6.8251e-06
-6.82514e-06
-6.82518e-06
-6.82522e-06
-6.82525e-06
-6.82529e-06
-6.82533e-06
-6.82536e-06
-6.8254e-06
-6.82544e-06
-6.82547e-06
-6.82551e-06
-6.82554e-06
-6.82558e-06
-6.82561e-06
-6.82564e-06
-6.82568e-06
-6.82571e-06
-6.82574e-06
-6.82577e-06
-6.8258e-06
-6.82583e-06
-6.82586e-06
-6.82589e-06
-6.82591e-06
-6.82594e-06
-6.82596e-06
-6.82599e-06
-6.82601e-06
-6.82603e-06
-6.82605e-06
-6.82607e-06
-6.82608e-06
-6.8261e-06
-6.82611e-06
-6.82612e-06
-6.82613e-06
-6.82614e-06
-6.82614e-06
-6.82615e-06
-6.82615e-06
-6.82615e-06
-6.82614e-06
-6.82614e-06
-6.82613e-06
-6.82613e-06
-6.82612e-06
-6.8261e-06
-6.82609e-06
-6.82607e-06
-6.82606e-06
-6.82604e-06
-6.82602e-06
-6.82599e-06
-6.82597e-06
-6.82595e-06
-6.82592e-06
-6.82589e-06
-6.82586e-06
-6.82583e-06
-6.8258e-06
-6.82577e-06
-6.82574e-06
-6.82571e-06
-6.82567e-06
-6.82564e-06
-6.82561e-06
-6.82558e-06
-6.82555e-06
-6.82552e-06
-6.82548e-06
-6.82545e-06
-6.82543e-06
-6.8254e-06
-6.82537e-06
-6.82534e-06
-6.82532e-06
-6.8253e-06
-6.82527e-06
-6.82525e-06
-6.82523e-06
-6.82522e-06
-6.8252e-06
-6.82518e-06
-6.82517e-06
-6.82516e-06
-6.82515e-06
-6.82514e-06
-6.82512e-06
-6.82512e-06
-6.82511e-06
-6.8251e-06
-6.82509e-06
-6.82508e-06
-6.82507e-06
-6.82506e-06
-6.82505e-06
-6.82504e-06
-6.82503e-06
-6.82502e-06
-6.82501e-06
-6.82499e-06
-6.82498e-06
-6.82496e-06
-6.82494e-06
-6.82492e-06
-6.82489e-06
-6.82486e-06
-6.82483e-06
-6.8248e-06
-6.82476e-06
-6.82472e-06
-6.82468e-06
-6.82463e-06
-6.82458e-06
-6.82453e-06
-6.82448e-06
-6.82442e-06
-6.82436e-06
-6.82429e-06
-6.82422e-06
-6.82416e-06
-6.82408e-06
-6.82401e-06
-6.82394e-06
-6.82386e-06
-6.82378e-06
-6.8237e-06
-6.82362e-06
-6.82354e-06
-6.82345e-06
-6.82337e-06
-6.82329e-06
-6.82321e-06
-6.82312e-06
-6.82304e-06
-6.82296e-06
-6.82288e-06
-6.8228e-06
-6.82273e-06
-6.82265e-06
-6.82258e-06
-6.82251e-06
-6.82244e-06
-6.82237e-06
-6.8223e-06
-6.82223e-06
-6.82217e-06
-6.82211e-06
-6.82205e-06
-6.82199e-06
-6.82193e-06
-6.82187e-06
-6.82181e-06
-6.82176e-06
-6.8217e-06
-6.82164e-06
-6.82159e-06
-6.82153e-06
-6.82147e-06
-6.82141e-06
-6.82135e-06
-6.82129e-06
-6.82123e-06
-6.82116e-06
-6.82109e-06
-6.82102e-06
-6.82095e-06
-6.82087e-06
-6.82079e-06
-6.8207e-06
-6.82062e-06
-6.82052e-06
-6.82043e-06
-6.82033e-06
-6.82022e-06
-6.82012e-06
-6.82e-06
-6.81989e-06
-6.81976e-06
-6.81964e-06
-6.81951e-06
-6.81937e-06
-6.81923e-06
-6.81908e-06
-6.81893e-06
-6.81878e-06
-6.81862e-06
-6.81846e-06
-6.81829e-06
-6.81812e-06
-6.81794e-06
-6.81776e-06
-6.81757e-06
-6.81739e-06
-6.81719e-06
-6.817e-06
-6.8168e-06
-6.8166e-06
-6.81639e-06
-6.81618e-06
-6.81598e-06
-6.81577e-06
-6.81555e-06
-6.81534e-06
-6.81512e-06
-6.81491e-06
-6.8147e-06
-6.81448e-06
-6.81427e-06
-6.81406e-06
-6.81386e-06
-6.81365e-06
-6.81345e-06
-6.81325e-06
-6.81306e-06
-6.81287e-06
-6.81269e-06
-6.81252e-06
-6.81234e-06
-6.81218e-06
-6.81202e-06
-6.81187e-06
-6.81172e-06
-6.81158e-06
-6.81145e-06
-6.81132e-06
-6.8112e-06
-6.81108e-06
-6.81097e-06
-6.81086e-06
-6.81076e-06
-6.81066e-06
-6.81057e-06
-6.81047e-06
-6.81038e-06
-6.81028e-06
-6.81019e-06
-6.81009e-06
-6.81e-06
-6.8099e-06
-6.8098e-06
-6.80969e-06
-6.80958e-06
-6.80947e-06
-6.80934e-06
-6.80922e-06
-6.80908e-06
-6.80895e-06
-6.8088e-06
-6.80865e-06
-6.80849e-06
-6.80833e-06
-6.80817e-06
-6.808e-06
-6.80782e-06
-6.80764e-06
-6.80746e-06
-6.80728e-06
-6.8071e-06
-6.80691e-06
-6.80673e-06
-6.80654e-06
-6.80635e-06
-6.80617e-06
-6.80598e-06
-6.8058e-06
-6.80561e-06
-6.80543e-06
-6.80524e-06
-6.80505e-06
-6.80486e-06
-6.80467e-06
-6.80447e-06
-6.80427e-06
-6.80406e-06
-6.80385e-06
-6.80363e-06
-6.8034e-06
-6.80316e-06
-6.80291e-06
-6.80265e-06
-6.80238e-06
-6.8021e-06
-6.8018e-06
-6.80149e-06
-6.80116e-06
-6.80083e-06
-6.80047e-06
-6.80011e-06
-6.79973e-06
-6.79933e-06
-6.79893e-06
-6.79851e-06
-6.79807e-06
-6.79763e-06
-6.79718e-06
-6.79672e-06
-6.79626e-06
-6.79579e-06
-6.79532e-06
-6.79485e-06
-6.79438e-06
-6.79393e-06
-6.79347e-06
-6.79303e-06
-6.79261e-06
-6.79219e-06
-6.7918e-06
-6.79141e-06
-6.79105e-06
-6.7907e-06
-6.79036e-06
-6.79004e-06
-6.78972e-06
-6.7894e-06
-6.78909e-06
-6.78877e-06
-6.78844e-06
-6.7881e-06
-6.78774e-06
-6.78736e-06
-6.78695e-06
-6.78651e-06
-6.78604e-06
-6.78553e-06
-6.78499e-06
-6.78442e-06
-6.78382e-06
-6.7832e-06
-6.78256e-06
-6.7819e-06
-6.78123e-06
-6.78056e-06
-6.7799e-06
-6.77926e-06
-6.77863e-06
-6.77803e-06
-6.77746e-06
-6.77694e-06
-6.77646e-06
-6.77603e-06
-6.77565e-06
-6.77534e-06
-6.77507e-06
-6.77486e-06
-6.7747e-06
-6.77456e-06
-6.77444e-06
-6.7743e-06
-6.77412e-06
-6.77386e-06
-6.77348e-06
-6.77293e-06
-6.77218e-06
-6.77119e-06
-6.76994e-06
-6.76842e-06
-6.76662e-06
-6.76456e-06
-6.76226e-06
-6.75975e-06
-6.75708e-06
-6.75426e-06
-6.75129e-06
-6.74818e-06
-6.74489e-06
-6.74135e-06
-6.73749e-06
-6.73323e-06
-6.72849e-06
-6.72319e-06
-6.71728e-06
-6.71076e-06
-6.70366e-06
-6.69608e-06
-6.68818e-06
-6.68016e-06
-6.67208e-06
-6.66351e-06
-6.65269e-06
-6.63532e-06
-6.60343e-06
-6.54537e-06
-6.44828e-06
-6.30229e-06
-6.10259e-06
-5.84023e-06
-5.40529e-06
-4.05239e-06
3.6386e-06
0.000165448
0.000353041
0.000537037
0.000688442
0.000794996
0.000861982
0.000901196
0.000923222
0.000935313
0.000941869
0.000945401
0.000947298
0.000948315
0.00094886
0.000949151
0.000949308
0.000949391
0.000949436
0.000949461
0.000949474
0.000949481
0.000949485
0.000949487
0.000949488
0.000949489
0.000949489
0.00094949
0.00094949
0.00094949
0.000949491
0.000949491
0.000949491
0.000949491
0.000949491
0.000949492
0.000949492
0.000949492
0.000949492
0.000949492
0.000949492
0.000949492
0.000949492
0.000949492
0.000949492
0.000949492
0.000949492
0.000949492
0.000949493
0.000949493
0.000949492
0.000949492
0.000949492
0.000949492
0.000949492
0.000949492
0.000949492
0.000949492
0.000949492
0.000949492
0.000949492
0.000949492
0.000949492
0.000949492
0.000949492
0.000949492
0.000949492
0.000949491
0.000949491
0.000949491
0.000949491
0.000949491
0.000949491
0.00094949
0.00094949
0.00094949
0.00094949
0.00094949
0.00094949
0.000949489
0.000949489
0.000949489
0.000949489
)
;

boundaryField
{
    fixedWall
    {
        type            calculated;
        value           uniform 0;
    }
    outlet
    {
        type            calculated;
        value           uniform 0.000949488;
    }
    defaultFaces
    {
        type            empty;
    }
}


// ************************************************************************* //
