/*--------------------------------*- C++ -*----------------------------------*\
| =========                 |                                                 |
| \\      /  F ield         | OpenFOAM: The Open Source CFD Toolbox           |
|  \\    /   O peration     | Version:  2406                                  |
|   \\  /    A nd           | Website:  www.openfoam.com                      |
|    \\/     M anipulation  |                                                 |
\*---------------------------------------------------------------------------*/
FoamFile
{
    version     2.0;
    format      ascii;
    arch        "LSB;label=32;scalar=64";
    class       volScalarField;
    location    "5.7";
    object      Qdot;
}
// * * * * * * * * * * * * * * * * * * * * * * * * * * * * * * * * * * * * * //

dimensions      [1 -1 -3 0 0 0 0];

internalField   nonuniform List<scalar> 
1000
(
2.4465e-08
-2.03513e-16
5.45332e-08
1.28733e-07
2.92334e-07
8.89974e-07
3.26293e-06
1.04973e-05
2.85197e-05
6.83945e-05
0.000147802
0.000292617
0.000538124
0.000929251
0.00151982
0.00237132
0.0035501
0.00512515
0.00716398
0.00972983
0.0128782
0.0166539
0.0210887
0.0261998
0.0319886
0.0384408
0.0455264
0.0532012
0.0614081
0.0700793
0.0791382
0.0885024
0.0980854
0.1078
0.117559
0.12728
0.136882
0.146294
0.15545
0.164292
0.17277
0.180845
0.188484
0.195664
0.202369
0.208592
0.21433
0.219588
0.224376
0.228709
0.232603
0.23608
0.239163
0.241876
0.244245
0.246296
0.248056
0.249551
0.250806
0.251847
0.252696
0.253377
0.25391
0.254315
0.254612
0.254817
0.254945
0.255011
0.255028
0.255007
0.254959
0.254893
0.254817
0.254739
0.254664
0.254598
0.254545
0.25451
0.254495
0.254503
0.254536
0.254596
0.254684
0.2548
0.254946
0.255121
0.255326
0.25556
0.255822
0.256112
0.25643
0.256775
0.257145
0.25754
0.257959
0.258401
0.258865
0.259349
0.259853
0.260376
0.260917
0.261474
0.262047
0.262635
0.263236
0.263851
0.264477
0.265115
0.265762
0.266417
0.267086
0.267763
0.268448
0.269141
0.26984
0.270546
0.271258
0.271976
0.272699
0.273427
0.27416
0.274896
0.275637
0.276382
0.27713
0.277881
0.278636
0.279394
0.280155
0.280918
0.281684
0.282453
0.283224
0.283998
0.284774
0.285553
0.286334
0.287117
0.287903
0.288691
0.289481
0.290273
0.291068
0.291865
0.292665
0.293467
0.294271
0.295078
0.295887
0.296699
0.297513
0.29833
0.299149
0.299971
0.300796
0.301623
0.302453
0.303286
0.304122
0.304961
0.305802
0.306647
0.307495
0.308345
0.309199
0.310056
0.310916
0.311779
0.312646
0.313516
0.314389
0.315265
0.316145
0.317025
0.317906
0.318797
0.319692
0.32059
0.321492
0.322397
0.323305
0.324218
0.325134
0.326053
0.326977
0.327904
0.328834
0.329769
0.330708
0.33165
0.332596
0.333547
0.334501
0.335459
0.336421
0.337387
0.338357
0.339332
0.34031
0.341293
0.342279
0.34327
0.344265
0.345265
0.346268
0.347276
0.348288
0.349304
0.350325
0.35135
0.35238
0.353414
0.354452
0.355495
0.356542
0.357594
0.35865
0.359711
0.360776
0.361846
0.362921
0.364
0.365084
0.366173
0.367266
0.368364
0.369467
0.370575
0.371687
0.372804
0.373926
0.375053
0.376185
0.377322
0.378464
0.379611
0.380763
0.38192
0.383081
0.384249
0.385421
0.386598
0.387781
0.388968
0.390161
0.391359
0.392563
0.393772
0.394986
0.396206
0.397431
0.398661
0.399897
0.401139
0.402386
0.403639
0.404897
0.406161
0.40743
0.408706
0.409987
0.411274
0.412567
0.413865
0.41517
0.41648
0.417797
0.419119
0.420448
0.421782
0.423123
0.42447
0.425823
0.427183
0.428549
0.429921
0.431299
0.432684
0.434076
0.435474
0.436878
0.43829
0.439708
0.441132
0.442564
0.444002
0.445447
0.446899
0.448358
0.449824
0.451297
0.452777
0.454265
0.455759
0.457261
0.45877
0.460287
0.461811
0.46334
0.464868
0.466414
0.467969
0.469531
0.471101
0.472678
0.474264
0.475857
0.477458
0.479067
0.480685
0.48231
0.483944
0.485586
0.487236
0.488894
0.490561
0.492236
0.493919
0.495612
0.497312
0.499022
0.50074
0.502467
0.504202
0.505947
0.5077
0.509462
0.511234
0.513014
0.514804
0.516602
0.51841
0.520228
0.522054
0.523891
0.525736
0.527591
0.529456
0.531331
0.533215
0.535109
0.537013
0.538926
0.54085
0.542784
0.544728
0.546683
0.548647
0.550622
0.552608
0.554604
0.55661
0.558627
0.560655
0.562694
0.564744
0.566805
0.568877
0.57096
0.573054
0.57516
0.577277
0.579406
0.581547
0.583699
0.585863
0.588039
0.590228
0.592428
0.594641
0.596866
0.599103
0.601354
0.603616
0.605892
0.608181
0.610483
0.612797
0.615126
0.617467
0.619822
0.622191
0.624574
0.62697
0.629381
0.631805
0.634244
0.636697
0.639165
0.641647
0.644145
0.646657
0.649184
0.651726
0.654284
0.656858
0.659447
0.662051
0.664655
0.667272
0.669925
0.672594
0.67528
0.677981
0.680699
0.683433
0.686183
0.68895
0.691734
0.694536
0.697354
0.700189
0.703042
0.705913
0.708801
0.711707
0.71463
0.717572
0.720532
0.72351
0.726507
0.729522
0.732555
0.735607
0.738679
0.741769
0.744878
0.748007
0.751154
0.754322
0.757509
0.760716
0.763942
0.767189
0.770457
0.773744
0.777052
0.780381
0.783731
0.787102
0.790494
0.793907
0.797342
0.800799
0.804277
0.807759
0.811256
0.814802
0.818371
0.821964
0.82558
0.829219
0.832882
0.836569
0.84028
0.844015
0.847775
0.85156
0.85537
0.859206
0.863067
0.866954
0.870868
0.874808
0.878774
0.882768
0.886789
0.890837
0.894914
0.899018
0.903151
0.907312
0.911503
0.915723
0.919972
0.924251
0.92856
0.9329
0.93727
0.941671
0.946104
0.950568
0.955064
0.959592
0.964153
0.968746
0.973373
0.978032
0.982726
0.987453
0.992215
0.997011
1.00184
1.00671
1.01161
1.01655
1.02152
1.02653
1.03158
1.03666
1.04179
1.04695
1.05214
1.05738
1.06266
1.06797
1.07333
1.07873
1.08416
1.08964
1.09516
1.10072
1.10633
1.11197
1.11767
1.1234
1.12918
1.13501
1.14088
1.14675
1.1527
1.15869
1.16474
1.17084
1.17698
1.18318
1.18942
1.19571
1.20205
1.20844
1.21488
1.22137
1.22792
1.23452
1.24117
1.24787
1.25463
1.26145
1.26832
1.27525
1.28224
1.28928
1.29638
1.30355
1.31077
1.31805
1.3254
1.3328
1.34027
1.34781
1.35541
1.36307
1.3708
1.3786
1.38646
1.39439
1.40239
1.41046
1.4186
1.42682
1.4351
1.44346
1.45189
1.4604
1.46898
1.47764
1.48637
1.49518
1.50408
1.51305
1.5221
1.53123
1.54044
1.54974
1.55912
1.56858
1.57813
1.58773
1.59738
1.60719
1.61709
1.62707
1.63715
1.64732
1.65758
1.66794
1.67839
1.68894
1.69958
1.71033
1.72117
1.73212
1.74317
1.75432
1.76558
1.77695
1.78842
1.80001
1.8117
1.82351
1.83544
1.84748
1.85963
1.87191
1.88431
1.89683
1.90948
1.92225
1.93515
1.94819
1.96135
1.97466
1.98809
2.00167
2.01539
2.02925
2.04325
2.05741
2.07171
2.08616
2.10077
2.11553
2.13045
2.14544
2.16058
2.17598
2.19156
2.20731
2.22323
2.23933
2.2556
2.27206
2.28869
2.30551
2.32251
2.3397
2.35708
2.37466
2.39243
2.4104
2.42858
2.44695
2.46554
2.48433
2.50334
2.52256
2.542
2.56166
2.58154
2.60166
2.622
2.64258
2.6634
2.68446
2.70577
2.72733
2.74913
2.77114
2.79331
2.81592
2.8388
2.86196
2.88541
2.90914
2.93316
2.95748
2.9821
3.00703
3.03228
3.05785
3.08374
3.10997
3.13654
3.16338
3.19043
3.21802
3.24598
3.27431
3.30301
3.3321
3.36158
3.39147
3.42176
3.45246
3.48359
3.51514
3.54713
3.57957
3.61246
3.64581
3.67963
3.71393
3.74872
3.784
3.81978
3.85608
3.8929
3.93025
3.96815
4.0066
4.04561
4.08519
4.12536
4.16613
4.2075
4.24948
4.2921
4.33536
4.37928
4.42386
4.46912
4.51508
4.56174
4.60913
4.65725
4.70613
4.75576
4.80617
4.85732
4.90893
4.9617
5.01534
5.06984
5.12524
5.18154
5.23875
5.2969
5.356
5.41608
5.47715
5.53923
5.60235
5.66653
5.73179
5.79817
5.86567
5.93434
6.0042
6.07527
6.14758
6.22117
6.29607
6.37231
6.44992
6.52895
6.60942
6.69137
6.77485
6.85989
6.94655
7.03485
7.12485
7.21659
7.31012
7.40549
7.50275
7.60195
7.70315
7.80639
7.91175
8.01926
8.12901
8.24104
8.35543
8.47222
8.59081
8.71209
8.83668
8.96391
9.09387
9.22666
9.36237
9.50108
9.64289
9.78787
9.93613
10.0877
10.2428
10.4015
10.5638
10.73
10.9
11.0741
11.2523
11.4349
11.6219
11.8135
12.0098
12.2111
12.4174
12.629
12.8461
13.0689
13.2975
13.5321
13.7731
14.0206
14.2748
14.5361
14.8046
15.0806
15.3645
15.6565
15.9569
16.266
16.5842
16.9119
17.2493
17.5969
17.9551
18.3243
18.7049
19.0974
19.5024
19.9202
20.3515
20.7969
21.2568
21.732
22.2231
22.7309
23.2558
23.7985
24.356
24.9359
25.5375
26.1611
26.8076
27.4779
28.1733
28.895
29.6444
30.423
31.2324
32.0743
32.9504
33.8628
34.8134
35.8044
36.8382
37.9173
39.0442
40.2218
41.4532
42.7416
44.0903
45.5033
46.9844
48.538
50.1689
51.8819
53.6825
55.5766
57.5706
59.6717
61.8875
64.2264
66.6977
69.3115
72.079
75.0126
78.1258
81.4339
84.9537
88.7042
92.7065
96.9843
101.564
106.474
111.712
117.359
123.469
130.074
137.224
144.98
153.41
162.593
172.617
183.584
195.61
208.829
223.399
239.501
257.355
277.218
299.4
324.276
352.296
384.009
420.085
461.347
508.815
563.773
627.813
702.747
791.367
897.219
1024.7
1180.13
1372.02
1612.45
1918.86
2315.63
2846.68
3573.56
4600.16
6100.8
8379.06
11997.4
18108.9
29410.5
53027.8
109298
260591
737815
2.47569e+06
9.64234e+06
2.80578e+07
350263
1231.79
7.82872
0.185394
0.0164282
0.00388061
0.00171172
0.00108938
0.000851846
0.000745944
0.000694587
0.000668435
0.000654856
0.000647704
0.000643927
0.000641944
0.000640844
0.000640295
0.000639965
0.000639868
0.000639705
0.000639737
0.000639718
0.000639638
0.000639712
0.000639717
0.000639723
0.000639658
0.000639738
0.000639674
0.000639757
0.000639765
0.000639773
0.000639707
0.000639787
0.000639725
0.000639805
0.000639815
0.000639824
0.000639837
0.000639844
0.000639854
0.000639788
0.000639872
0.000639809
0.00063989
0.000639897
0.000639831
0.000639843
0.000639854
0.000639864
0.0006398
0.000639882
0.000639891
0.000639824
0.000639908
0.000639915
0.000639923
0.000639931
0.00063994
0.000639949
0.000639959
0.000639895
0.000639978
0.000639986
0.000639923
0.000640004
0.000640014
0.000640025
0.000640032
0.00064004
0.000640048
0.000640058
0.000640069
0.000640077
0.000640012
0.000640095
0.000640029
0.000640113
0.00064012
0.000640129
0.000640138
)
;

boundaryField
{
    fixedWall
    {
        type            calculated;
        value           uniform 0;
    }
    outlet
    {
        type            calculated;
        value           uniform 0;
    }
    defaultFaces
    {
        type            empty;
    }
}


// ************************************************************************* //
