/*--------------------------------*- C++ -*----------------------------------*\
| =========                 |                                                 |
| \\      /  F ield         | OpenFOAM: The Open Source CFD Toolbox           |
|  \\    /   O peration     | Version:  2406                                  |
|   \\  /    A nd           | Website:  www.openfoam.com                      |
|    \\/     M anipulation  |                                                 |
\*---------------------------------------------------------------------------*/
FoamFile
{
    version     2.0;
    format      ascii;
    arch        "LSB;label=32;scalar=64";
    class       volVectorField;
    location    "5.7";
    object      U;
}
// * * * * * * * * * * * * * * * * * * * * * * * * * * * * * * * * * * * * * //

dimensions      [0 1 -1 0 0 0 0];

internalField   nonuniform List<vector> 
1000
(
(-2.30185e-06 0 0)
(-1.11736e-05 0 0)
(-2.81711e-05 0 0)
(-5.05722e-05 0 0)
(-7.69591e-05 0 0)
(-0.000106488 0 0)
(-0.000138558 0 0)
(-0.000172686 0 0)
(-0.000208486 0 0)
(-0.000245642 0 0)
(-0.000283895 0 0)
(-0.000323032 0 0)
(-0.00036287 0 0)
(-0.000403254 0 0)
(-0.000444053 0 0)
(-0.00048515 0 0)
(-0.000526443 0 0)
(-0.000567844 0 0)
(-0.000609274 0 0)
(-0.000650661 0 0)
(-0.000691943 0 0)
(-0.000733063 0 0)
(-0.00077397 0 0)
(-0.000814618 0 0)
(-0.000854965 0 0)
(-0.000894973 0 0)
(-0.000934608 0 0)
(-0.000973837 0 0)
(-0.00101263 0 0)
(-0.00105097 0 0)
(-0.00108883 0 0)
(-0.00112618 0 0)
(-0.00116301 0 0)
(-0.0011993 0 0)
(-0.00123503 0 0)
(-0.00127019 0 0)
(-0.00130477 0 0)
(-0.00133876 0 0)
(-0.00137215 0 0)
(-0.00140492 0 0)
(-0.00143708 0 0)
(-0.00146861 0 0)
(-0.00149952 0 0)
(-0.00152979 0 0)
(-0.00155942 0 0)
(-0.00158842 0 0)
(-0.00161678 0 0)
(-0.0016445 0 0)
(-0.00167159 0 0)
(-0.00169803 0 0)
(-0.00172385 0 0)
(-0.00174902 0 0)
(-0.00177357 0 0)
(-0.0017975 0 0)
(-0.0018208 0 0)
(-0.00184349 0 0)
(-0.00186557 0 0)
(-0.00188704 0 0)
(-0.00190792 0 0)
(-0.0019282 0 0)
(-0.0019479 0 0)
(-0.00196703 0 0)
(-0.00198558 0 0)
(-0.00200358 0 0)
(-0.00202103 0 0)
(-0.00203793 0 0)
(-0.0020543 0 0)
(-0.00207014 0 0)
(-0.00208547 0 0)
(-0.00210029 0 0)
(-0.00211462 0 0)
(-0.00212846 0 0)
(-0.00214183 0 0)
(-0.00215473 0 0)
(-0.00216718 0 0)
(-0.00217918 0 0)
(-0.00219074 0 0)
(-0.00220189 0 0)
(-0.00221261 0 0)
(-0.00222294 0 0)
(-0.00223287 0 0)
(-0.00224242 0 0)
(-0.0022516 0 0)
(-0.00226041 0 0)
(-0.00226888 0 0)
(-0.002277 0 0)
(-0.00228479 0 0)
(-0.00229226 0 0)
(-0.00229941 0 0)
(-0.00230627 0 0)
(-0.00231283 0 0)
(-0.00231911 0 0)
(-0.00232511 0 0)
(-0.00233085 0 0)
(-0.00233634 0 0)
(-0.00234157 0 0)
(-0.00234657 0 0)
(-0.00235135 0 0)
(-0.0023559 0 0)
(-0.00236023 0 0)
(-0.00236436 0 0)
(-0.0023683 0 0)
(-0.00237205 0 0)
(-0.0023756 0 0)
(-0.00237898 0 0)
(-0.00238221 0 0)
(-0.0023853 0 0)
(-0.00238821 0 0)
(-0.00239095 0 0)
(-0.00239356 0 0)
(-0.00239603 0 0)
(-0.00239838 0 0)
(-0.00240061 0 0)
(-0.00240272 0 0)
(-0.00240473 0 0)
(-0.00240662 0 0)
(-0.00240841 0 0)
(-0.00241011 0 0)
(-0.00241171 0 0)
(-0.00241323 0 0)
(-0.00241467 0 0)
(-0.00241601 0 0)
(-0.00241728 0 0)
(-0.00241849 0 0)
(-0.00241963 0 0)
(-0.00242071 0 0)
(-0.00242171 0 0)
(-0.00242266 0 0)
(-0.00242356 0 0)
(-0.00242441 0 0)
(-0.0024252 0 0)
(-0.00242596 0 0)
(-0.00242666 0 0)
(-0.00242733 0 0)
(-0.00242796 0 0)
(-0.00242855 0 0)
(-0.0024291 0 0)
(-0.00242963 0 0)
(-0.00243012 0 0)
(-0.00243059 0 0)
(-0.00243102 0 0)
(-0.00243144 0 0)
(-0.00243183 0 0)
(-0.00243219 0 0)
(-0.00243254 0 0)
(-0.00243287 0 0)
(-0.00243317 0 0)
(-0.00243347 0 0)
(-0.00243374 0 0)
(-0.002434 0 0)
(-0.00243425 0 0)
(-0.00243448 0 0)
(-0.0024347 0 0)
(-0.00243492 0 0)
(-0.00243511 0 0)
(-0.00243531 0 0)
(-0.00243549 0 0)
(-0.00243565 0 0)
(-0.00243583 0 0)
(-0.00243597 0 0)
(-0.00243613 0 0)
(-0.00243629 0 0)
(-0.00243641 0 0)
(-0.00243655 0 0)
(-0.00243668 0 0)
(-0.0024368 0 0)
(-0.00243692 0 0)
(-0.00243704 0 0)
(-0.00243715 0 0)
(-0.00243726 0 0)
(-0.00243737 0 0)
(-0.00243747 0 0)
(-0.00243757 0 0)
(-0.00243767 0 0)
(-0.00243777 0 0)
(-0.00243786 0 0)
(-0.00243795 0 0)
(-0.00243804 0 0)
(-0.00243813 0 0)
(-0.00243822 0 0)
(-0.0024383 0 0)
(-0.00243839 0 0)
(-0.00243847 0 0)
(-0.00243855 0 0)
(-0.00243864 0 0)
(-0.00243872 0 0)
(-0.0024388 0 0)
(-0.00243887 0 0)
(-0.00243895 0 0)
(-0.00243903 0 0)
(-0.00243911 0 0)
(-0.00243918 0 0)
(-0.00243926 0 0)
(-0.00243933 0 0)
(-0.00243941 0 0)
(-0.00243948 0 0)
(-0.00243956 0 0)
(-0.00243963 0 0)
(-0.0024397 0 0)
(-0.00243978 0 0)
(-0.00243985 0 0)
(-0.00243992 0 0)
(-0.00243999 0 0)
(-0.00244006 0 0)
(-0.00244013 0 0)
(-0.0024402 0 0)
(-0.00244027 0 0)
(-0.00244034 0 0)
(-0.00244041 0 0)
(-0.00244048 0 0)
(-0.00244055 0 0)
(-0.00244062 0 0)
(-0.00244069 0 0)
(-0.00244076 0 0)
(-0.00244083 0 0)
(-0.00244089 0 0)
(-0.00244096 0 0)
(-0.00244103 0 0)
(-0.0024411 0 0)
(-0.00244116 0 0)
(-0.00244123 0 0)
(-0.0024413 0 0)
(-0.00244136 0 0)
(-0.00244143 0 0)
(-0.00244149 0 0)
(-0.00244156 0 0)
(-0.00244162 0 0)
(-0.00244169 0 0)
(-0.00244175 0 0)
(-0.00244181 0 0)
(-0.00244188 0 0)
(-0.00244194 0 0)
(-0.00244201 0 0)
(-0.00244207 0 0)
(-0.00244213 0 0)
(-0.00244219 0 0)
(-0.00244226 0 0)
(-0.00244232 0 0)
(-0.00244238 0 0)
(-0.00244244 0 0)
(-0.0024425 0 0)
(-0.00244256 0 0)
(-0.00244262 0 0)
(-0.00244269 0 0)
(-0.00244275 0 0)
(-0.00244281 0 0)
(-0.00244287 0 0)
(-0.00244292 0 0)
(-0.00244298 0 0)
(-0.00244304 0 0)
(-0.0024431 0 0)
(-0.00244316 0 0)
(-0.00244322 0 0)
(-0.00244328 0 0)
(-0.00244334 0 0)
(-0.00244339 0 0)
(-0.00244345 0 0)
(-0.00244351 0 0)
(-0.00244357 0 0)
(-0.00244362 0 0)
(-0.00244368 0 0)
(-0.00244374 0 0)
(-0.00244379 0 0)
(-0.00244385 0 0)
(-0.00244391 0 0)
(-0.00244396 0 0)
(-0.00244402 0 0)
(-0.00244407 0 0)
(-0.00244413 0 0)
(-0.00244418 0 0)
(-0.00244424 0 0)
(-0.00244429 0 0)
(-0.00244435 0 0)
(-0.0024444 0 0)
(-0.00244446 0 0)
(-0.00244451 0 0)
(-0.00244457 0 0)
(-0.00244462 0 0)
(-0.00244468 0 0)
(-0.00244473 0 0)
(-0.00244478 0 0)
(-0.00244484 0 0)
(-0.00244489 0 0)
(-0.00244494 0 0)
(-0.002445 0 0)
(-0.00244505 0 0)
(-0.0024451 0 0)
(-0.00244516 0 0)
(-0.00244521 0 0)
(-0.00244526 0 0)
(-0.00244531 0 0)
(-0.00244537 0 0)
(-0.00244542 0 0)
(-0.00244547 0 0)
(-0.00244552 0 0)
(-0.00244558 0 0)
(-0.00244563 0 0)
(-0.00244568 0 0)
(-0.00244573 0 0)
(-0.00244578 0 0)
(-0.00244583 0 0)
(-0.00244588 0 0)
(-0.00244594 0 0)
(-0.00244599 0 0)
(-0.00244604 0 0)
(-0.00244609 0 0)
(-0.00244614 0 0)
(-0.00244619 0 0)
(-0.00244624 0 0)
(-0.00244629 0 0)
(-0.00244634 0 0)
(-0.00244639 0 0)
(-0.00244644 0 0)
(-0.00244649 0 0)
(-0.00244654 0 0)
(-0.00244659 0 0)
(-0.00244664 0 0)
(-0.00244669 0 0)
(-0.00244674 0 0)
(-0.00244679 0 0)
(-0.00244684 0 0)
(-0.00244689 0 0)
(-0.00244694 0 0)
(-0.00244699 0 0)
(-0.00244704 0 0)
(-0.00244709 0 0)
(-0.00244714 0 0)
(-0.00244718 0 0)
(-0.00244723 0 0)
(-0.00244728 0 0)
(-0.00244733 0 0)
(-0.00244738 0 0)
(-0.00244743 0 0)
(-0.00244748 0 0)
(-0.00244752 0 0)
(-0.00244757 0 0)
(-0.00244762 0 0)
(-0.00244767 0 0)
(-0.00244772 0 0)
(-0.00244776 0 0)
(-0.00244781 0 0)
(-0.00244786 0 0)
(-0.00244791 0 0)
(-0.00244795 0 0)
(-0.002448 0 0)
(-0.00244805 0 0)
(-0.0024481 0 0)
(-0.00244814 0 0)
(-0.00244819 0 0)
(-0.00244824 0 0)
(-0.00244829 0 0)
(-0.00244833 0 0)
(-0.00244838 0 0)
(-0.00244843 0 0)
(-0.00244847 0 0)
(-0.00244852 0 0)
(-0.00244857 0 0)
(-0.00244862 0 0)
(-0.00244866 0 0)
(-0.00244871 0 0)
(-0.00244876 0 0)
(-0.0024488 0 0)
(-0.00244885 0 0)
(-0.0024489 0 0)
(-0.00244895 0 0)
(-0.00244899 0 0)
(-0.00244904 0 0)
(-0.00244909 0 0)
(-0.00244914 0 0)
(-0.00244918 0 0)
(-0.00244923 0 0)
(-0.00244928 0 0)
(-0.00244932 0 0)
(-0.00244937 0 0)
(-0.00244942 0 0)
(-0.00244947 0 0)
(-0.00244951 0 0)
(-0.00244956 0 0)
(-0.00244961 0 0)
(-0.00244966 0 0)
(-0.0024497 0 0)
(-0.00244975 0 0)
(-0.0024498 0 0)
(-0.00244984 0 0)
(-0.00244989 0 0)
(-0.00244994 0 0)
(-0.00244999 0 0)
(-0.00245003 0 0)
(-0.00245008 0 0)
(-0.00245013 0 0)
(-0.00245017 0 0)
(-0.00245022 0 0)
(-0.00245026 0 0)
(-0.00245031 0 0)
(-0.00245036 0 0)
(-0.0024504 0 0)
(-0.00245045 0 0)
(-0.00245049 0 0)
(-0.00245054 0 0)
(-0.00245058 0 0)
(-0.00245062 0 0)
(-0.00245067 0 0)
(-0.00245071 0 0)
(-0.00245076 0 0)
(-0.0024508 0 0)
(-0.00245084 0 0)
(-0.00245088 0 0)
(-0.00245092 0 0)
(-0.00245097 0 0)
(-0.00245101 0 0)
(-0.00245105 0 0)
(-0.00245109 0 0)
(-0.00245113 0 0)
(-0.00245117 0 0)
(-0.00245121 0 0)
(-0.00245124 0 0)
(-0.00245128 0 0)
(-0.00245132 0 0)
(-0.00245136 0 0)
(-0.00245139 0 0)
(-0.00245143 0 0)
(-0.00245146 0 0)
(-0.0024515 0 0)
(-0.00245153 0 0)
(-0.00245157 0 0)
(-0.0024516 0 0)
(-0.00245163 0 0)
(-0.00245167 0 0)
(-0.0024517 0 0)
(-0.00245173 0 0)
(-0.00245176 0 0)
(-0.00245179 0 0)
(-0.00245183 0 0)
(-0.00245186 0 0)
(-0.00245189 0 0)
(-0.00245192 0 0)
(-0.00245194 0 0)
(-0.00245197 0 0)
(-0.002452 0 0)
(-0.00245203 0 0)
(-0.00245206 0 0)
(-0.00245209 0 0)
(-0.00245213 0 0)
(-0.00245211 0 0)
(-0.00245216 0 0)
(-0.00245222 0 0)
(-0.00245222 0 0)
(-0.00245225 0 0)
(-0.00245227 0 0)
(-0.0024523 0 0)
(-0.00245233 0 0)
(-0.00245235 0 0)
(-0.00245238 0 0)
(-0.00245241 0 0)
(-0.00245243 0 0)
(-0.00245246 0 0)
(-0.00245248 0 0)
(-0.00245251 0 0)
(-0.00245253 0 0)
(-0.00245256 0 0)
(-0.00245259 0 0)
(-0.00245261 0 0)
(-0.00245264 0 0)
(-0.00245266 0 0)
(-0.00245269 0 0)
(-0.00245271 0 0)
(-0.00245274 0 0)
(-0.00245277 0 0)
(-0.00245279 0 0)
(-0.00245282 0 0)
(-0.00245284 0 0)
(-0.00245287 0 0)
(-0.00245289 0 0)
(-0.00245292 0 0)
(-0.00245295 0 0)
(-0.00245297 0 0)
(-0.002453 0 0)
(-0.00245302 0 0)
(-0.00245305 0 0)
(-0.00245307 0 0)
(-0.00245309 0 0)
(-0.00245312 0 0)
(-0.00245314 0 0)
(-0.00245317 0 0)
(-0.00245319 0 0)
(-0.00245322 0 0)
(-0.00245324 0 0)
(-0.00245326 0 0)
(-0.00245329 0 0)
(-0.00245331 0 0)
(-0.00245333 0 0)
(-0.00245335 0 0)
(-0.00245338 0 0)
(-0.0024534 0 0)
(-0.00245342 0 0)
(-0.00245344 0 0)
(-0.00245346 0 0)
(-0.00245348 0 0)
(-0.0024535 0 0)
(-0.00245352 0 0)
(-0.00245354 0 0)
(-0.00245356 0 0)
(-0.00245358 0 0)
(-0.0024536 0 0)
(-0.00245362 0 0)
(-0.00245364 0 0)
(-0.00245366 0 0)
(-0.00245367 0 0)
(-0.00245369 0 0)
(-0.00245371 0 0)
(-0.00245373 0 0)
(-0.00245374 0 0)
(-0.00245376 0 0)
(-0.00245378 0 0)
(-0.00245379 0 0)
(-0.00245381 0 0)
(-0.00245382 0 0)
(-0.00245384 0 0)
(-0.00245385 0 0)
(-0.00245387 0 0)
(-0.00245388 0 0)
(-0.0024539 0 0)
(-0.00245391 0 0)
(-0.00245393 0 0)
(-0.00245394 0 0)
(-0.00245396 0 0)
(-0.00245397 0 0)
(-0.00245398 0 0)
(-0.002454 0 0)
(-0.00245401 0 0)
(-0.00245402 0 0)
(-0.00245404 0 0)
(-0.00245405 0 0)
(-0.00245406 0 0)
(-0.00245407 0 0)
(-0.00245409 0 0)
(-0.0024541 0 0)
(-0.00245411 0 0)
(-0.00245412 0 0)
(-0.00245414 0 0)
(-0.00245415 0 0)
(-0.00245416 0 0)
(-0.00245417 0 0)
(-0.00245418 0 0)
(-0.00245419 0 0)
(-0.00245421 0 0)
(-0.00245422 0 0)
(-0.00245423 0 0)
(-0.00245424 0 0)
(-0.00245424 0 0)
(-0.00245425 0 0)
(-0.00245426 0 0)
(-0.00245427 0 0)
(-0.00245428 0 0)
(-0.00245429 0 0)
(-0.00245429 0 0)
(-0.0024543 0 0)
(-0.00245431 0 0)
(-0.00245431 0 0)
(-0.00245432 0 0)
(-0.00245432 0 0)
(-0.00245432 0 0)
(-0.00245433 0 0)
(-0.00245433 0 0)
(-0.00245433 0 0)
(-0.00245433 0 0)
(-0.00245433 0 0)
(-0.00245433 0 0)
(-0.00245433 0 0)
(-0.00245433 0 0)
(-0.00245433 0 0)
(-0.00245432 0 0)
(-0.00245432 0 0)
(-0.00245431 0 0)
(-0.00245431 0 0)
(-0.0024543 0 0)
(-0.0024543 0 0)
(-0.00245429 0 0)
(-0.00245428 0 0)
(-0.00245428 0 0)
(-0.00245427 0 0)
(-0.00245426 0 0)
(-0.00245425 0 0)
(-0.00245424 0 0)
(-0.00245423 0 0)
(-0.00245422 0 0)
(-0.00245421 0 0)
(-0.0024542 0 0)
(-0.00245419 0 0)
(-0.00245418 0 0)
(-0.00245417 0 0)
(-0.00245416 0 0)
(-0.00245415 0 0)
(-0.00245414 0 0)
(-0.00245413 0 0)
(-0.00245412 0 0)
(-0.00245411 0 0)
(-0.0024541 0 0)
(-0.00245409 0 0)
(-0.00245408 0 0)
(-0.00245407 0 0)
(-0.00245406 0 0)
(-0.00245406 0 0)
(-0.00245405 0 0)
(-0.00245404 0 0)
(-0.00245404 0 0)
(-0.00245403 0 0)
(-0.00245403 0 0)
(-0.00245402 0 0)
(-0.00245402 0 0)
(-0.00245401 0 0)
(-0.00245401 0 0)
(-0.00245401 0 0)
(-0.002454 0 0)
(-0.002454 0 0)
(-0.002454 0 0)
(-0.002454 0 0)
(-0.00245399 0 0)
(-0.00245399 0 0)
(-0.00245399 0 0)
(-0.00245399 0 0)
(-0.00245398 0 0)
(-0.00245398 0 0)
(-0.00245398 0 0)
(-0.00245397 0 0)
(-0.00245397 0 0)
(-0.00245396 0 0)
(-0.00245396 0 0)
(-0.00245395 0 0)
(-0.00245395 0 0)
(-0.00245394 0 0)
(-0.00245393 0 0)
(-0.00245392 0 0)
(-0.00245391 0 0)
(-0.0024539 0 0)
(-0.00245389 0 0)
(-0.00245387 0 0)
(-0.00245386 0 0)
(-0.00245384 0 0)
(-0.00245383 0 0)
(-0.00245381 0 0)
(-0.00245379 0 0)
(-0.00245377 0 0)
(-0.00245375 0 0)
(-0.00245372 0 0)
(-0.0024537 0 0)
(-0.00245368 0 0)
(-0.00245365 0 0)
(-0.00245362 0 0)
(-0.0024536 0 0)
(-0.00245357 0 0)
(-0.00245354 0 0)
(-0.00245351 0 0)
(-0.00245349 0 0)
(-0.00245346 0 0)
(-0.00245343 0 0)
(-0.0024534 0 0)
(-0.00245337 0 0)
(-0.00245334 0 0)
(-0.00245331 0 0)
(-0.00245328 0 0)
(-0.00245325 0 0)
(-0.00245322 0 0)
(-0.00245319 0 0)
(-0.00245316 0 0)
(-0.00245314 0 0)
(-0.00245311 0 0)
(-0.00245308 0 0)
(-0.00245306 0 0)
(-0.00245303 0 0)
(-0.00245301 0 0)
(-0.00245298 0 0)
(-0.00245296 0 0)
(-0.00245293 0 0)
(-0.00245291 0 0)
(-0.00245289 0 0)
(-0.00245287 0 0)
(-0.00245285 0 0)
(-0.00245282 0 0)
(-0.0024528 0 0)
(-0.00245278 0 0)
(-0.00245276 0 0)
(-0.00245274 0 0)
(-0.00245272 0 0)
(-0.0024527 0 0)
(-0.00245268 0 0)
(-0.00245265 0 0)
(-0.00245263 0 0)
(-0.00245261 0 0)
(-0.00245258 0 0)
(-0.00245256 0 0)
(-0.00245253 0 0)
(-0.0024525 0 0)
(-0.00245248 0 0)
(-0.00245245 0 0)
(-0.00245242 0 0)
(-0.00245238 0 0)
(-0.00245235 0 0)
(-0.00245232 0 0)
(-0.00245228 0 0)
(-0.00245224 0 0)
(-0.0024522 0 0)
(-0.00245216 0 0)
(-0.00245212 0 0)
(-0.00245208 0 0)
(-0.00245203 0 0)
(-0.00245198 0 0)
(-0.00245194 0 0)
(-0.00245189 0 0)
(-0.00245183 0 0)
(-0.00245178 0 0)
(-0.00245173 0 0)
(-0.00245167 0 0)
(-0.00245161 0 0)
(-0.00245155 0 0)
(-0.00245149 0 0)
(-0.00245143 0 0)
(-0.00245137 0 0)
(-0.0024513 0 0)
(-0.00245124 0 0)
(-0.00245117 0 0)
(-0.0024511 0 0)
(-0.00245103 0 0)
(-0.00245096 0 0)
(-0.00245089 0 0)
(-0.00245082 0 0)
(-0.00245075 0 0)
(-0.00245067 0 0)
(-0.0024506 0 0)
(-0.00245053 0 0)
(-0.00245045 0 0)
(-0.00245038 0 0)
(-0.00245031 0 0)
(-0.00245023 0 0)
(-0.00245016 0 0)
(-0.00245009 0 0)
(-0.00245002 0 0)
(-0.00244994 0 0)
(-0.00244988 0 0)
(-0.00244981 0 0)
(-0.00244974 0 0)
(-0.00244968 0 0)
(-0.00244961 0 0)
(-0.00244955 0 0)
(-0.00244949 0 0)
(-0.00244944 0 0)
(-0.00244938 0 0)
(-0.00244933 0 0)
(-0.00244928 0 0)
(-0.00244923 0 0)
(-0.00244918 0 0)
(-0.00244914 0 0)
(-0.00244909 0 0)
(-0.00244905 0 0)
(-0.00244902 0 0)
(-0.00244898 0 0)
(-0.00244894 0 0)
(-0.00244891 0 0)
(-0.00244888 0 0)
(-0.00244884 0 0)
(-0.00244881 0 0)
(-0.00244878 0 0)
(-0.00244875 0 0)
(-0.00244871 0 0)
(-0.00244868 0 0)
(-0.00244865 0 0)
(-0.00244861 0 0)
(-0.00244858 0 0)
(-0.00244854 0 0)
(-0.0024485 0 0)
(-0.00244846 0 0)
(-0.00244841 0 0)
(-0.00244837 0 0)
(-0.00244832 0 0)
(-0.00244827 0 0)
(-0.00244821 0 0)
(-0.00244816 0 0)
(-0.0024481 0 0)
(-0.00244804 0 0)
(-0.00244798 0 0)
(-0.00244791 0 0)
(-0.00244785 0 0)
(-0.00244778 0 0)
(-0.00244771 0 0)
(-0.00244764 0 0)
(-0.00244757 0 0)
(-0.0024475 0 0)
(-0.00244743 0 0)
(-0.00244736 0 0)
(-0.00244729 0 0)
(-0.00244722 0 0)
(-0.00244714 0 0)
(-0.00244707 0 0)
(-0.002447 0 0)
(-0.00244693 0 0)
(-0.00244686 0 0)
(-0.00244679 0 0)
(-0.00244671 0 0)
(-0.00244664 0 0)
(-0.00244656 0 0)
(-0.00244648 0 0)
(-0.0024464 0 0)
(-0.00244632 0 0)
(-0.00244624 0 0)
(-0.00244615 0 0)
(-0.00244606 0 0)
(-0.00244597 0 0)
(-0.00244587 0 0)
(-0.00244577 0 0)
(-0.00244566 0 0)
(-0.00244555 0 0)
(-0.00244544 0 0)
(-0.00244532 0 0)
(-0.00244519 0 0)
(-0.00244506 0 0)
(-0.00244493 0 0)
(-0.00244479 0 0)
(-0.00244465 0 0)
(-0.0024445 0 0)
(-0.00244435 0 0)
(-0.00244419 0 0)
(-0.00244404 0 0)
(-0.00244387 0 0)
(-0.00244371 0 0)
(-0.00244354 0 0)
(-0.00244338 0 0)
(-0.00244321 0 0)
(-0.00244304 0 0)
(-0.00244288 0 0)
(-0.00244271 0 0)
(-0.00244255 0 0)
(-0.00244239 0 0)
(-0.00244224 0 0)
(-0.0024421 0 0)
(-0.00244196 0 0)
(-0.00244182 0 0)
(-0.00244169 0 0)
(-0.00244157 0 0)
(-0.00244145 0 0)
(-0.00244133 0 0)
(-0.00244122 0 0)
(-0.00244111 0 0)
(-0.002441 0 0)
(-0.00244089 0 0)
(-0.00244078 0 0)
(-0.00244066 0 0)
(-0.00244054 0 0)
(-0.00244041 0 0)
(-0.00244027 0 0)
(-0.00244012 0 0)
(-0.00243995 0 0)
(-0.00243978 0 0)
(-0.00243959 0 0)
(-0.0024394 0 0)
(-0.00243919 0 0)
(-0.00243897 0 0)
(-0.00243874 0 0)
(-0.00243851 0 0)
(-0.00243828 0 0)
(-0.00243804 0 0)
(-0.00243781 0 0)
(-0.00243758 0 0)
(-0.00243735 0 0)
(-0.00243714 0 0)
(-0.00243693 0 0)
(-0.00243674 0 0)
(-0.00243656 0 0)
(-0.0024364 0 0)
(-0.00243626 0 0)
(-0.00243614 0 0)
(-0.00243603 0 0)
(-0.00243595 0 0)
(-0.00243588 0 0)
(-0.00243582 0 0)
(-0.00243576 0 0)
(-0.0024357 0 0)
(-0.00243564 0 0)
(-0.00243554 0 0)
(-0.00243542 0 0)
(-0.00243525 0 0)
(-0.00243488 0 0)
(-0.00243461 0 0)
(-0.00243425 0 0)
(-0.00243366 0 0)
(-0.00243305 0 0)
(-0.00243233 0 0)
(-0.0024315 0 0)
(-0.00243061 0 0)
(-0.00242972 0 0)
(-0.00242865 0 0)
(-0.00242764 0 0)
(-0.00242654 0 0)
(-0.00242534 0 0)
(-0.00242417 0 0)
(-0.00242283 0 0)
(-0.00242139 0 0)
(-0.00241978 0 0)
(-0.00241799 0 0)
(-0.00241599 0 0)
(-0.00241377 0 0)
(-0.00241134 0 0)
(-0.00240871 0 0)
(-0.00240593 0 0)
(-0.00240305 0 0)
(-0.0024002 0 0)
(-0.00239733 0 0)
(-0.0023943 0 0)
(-0.00238966 0 0)
(-0.00238128 0 0)
(-0.00236256 0 0)
(-0.00234239 0 0)
(-0.00226921 0 0)
(-0.00221232 0 0)
(-0.00227532 0 0)
(-0.00235296 0 0)
(-0.00447612 0 0)
(-0.00371002 0 0)
(0.0200948 0 0)
(0.0583316 0 0)
(0.084031 0 0)
(0.0970241 0 0)
(0.103406 0 0)
(0.106388 0 0)
(0.107763 0 0)
(0.108411 0 0)
(0.108748 0 0)
(0.108959 0 0)
(0.109009 0 0)
(0.109074 0 0)
(0.109074 0 0)
(0.10917 0 0)
(0.109117 0 0)
(0.109061 0 0)
(0.109177 0 0)
(0.109112 0 0)
(0.10913 0 0)
(0.109126 0 0)
(0.10913 0 0)
(0.109122 0 0)
(0.109142 0 0)
(0.109104 0 0)
(0.109147 0 0)
(0.109153 0 0)
(0.10908 0 0)
(0.109144 0 0)
(0.109175 0 0)
(0.109076 0 0)
(0.109143 0 0)
(0.109136 0 0)
(0.109123 0 0)
(0.109107 0 0)
(0.109157 0 0)
(0.10916 0 0)
(0.109055 0 0)
(0.109193 0 0)
(0.109115 0 0)
(0.109122 0 0)
(0.109096 0 0)
(0.109193 0 0)
(0.109119 0 0)
(0.109078 0 0)
(0.109175 0 0)
(0.109117 0 0)
(0.109132 0 0)
(0.109123 0 0)
(0.109143 0 0)
(0.109088 0 0)
(0.109184 0 0)
(0.109145 0 0)
(0.109051 0 0)
(0.109182 0 0)
(0.109159 0 0)
(0.109069 0 0)
(0.109157 0 0)
(0.109164 0 0)
(0.109069 0 0)
(0.10917 0 0)
(0.109093 0 0)
(0.109181 0 0)
(0.109136 0 0)
(0.109049 0 0)
(0.109191 0 0)
(0.109168 0 0)
(0.109058 0 0)
(0.109135 0 0)
(0.10919 0 0)
(0.109082 0 0)
(0.109141 0 0)
(0.109111 0 0)
(0.109163 0 0)
(0.109129 0 0)
(0.109137 0 0)
(0.109103 0 0)
(0.109096 0 0)
(0.10921 0 0)
(0.109085 0 0)
(0.109129 0 0)
(0.109142 0 0)
(0.109125 0 0)
(0.109136 0 0)
)
;

boundaryField
{
    fixedWall
    {
        type            fixedValue;
        value           uniform (0 0 0);
    }
    outlet
    {
        type            pressureInletOutletVelocity;
        value           uniform (0.109136 0 0);
    }
    defaultFaces
    {
        type            empty;
    }
}


// ************************************************************************* //
