/*--------------------------------*- C++ -*----------------------------------*\
| =========                 |                                                 |
| \\      /  F ield         | OpenFOAM: The Open Source CFD Toolbox           |
|  \\    /   O peration     | Version:  2406                                  |
|   \\  /    A nd           | Website:  www.openfoam.com                      |
|    \\/     M anipulation  |                                                 |
\*---------------------------------------------------------------------------*/
FoamFile
{
    version     2.0;
    format      ascii;
    arch        "LSB;label=32;scalar=64";
    class       volScalarField;
    location    "4";
    object      CO2;
}
// * * * * * * * * * * * * * * * * * * * * * * * * * * * * * * * * * * * * * //

dimensions      [0 0 0 0 0 0 0];

internalField   nonuniform List<scalar> 
1000
(
0.0709258
0.0709258
0.0709258
0.0709258
0.0709258
0.0709258
0.0709258
0.0709258
0.0709258
0.0709258
0.0709259
0.0709259
0.0709259
0.0709259
0.0709259
0.0709259
0.0709259
0.070926
0.070926
0.070926
0.070926
0.070926
0.070926
0.070926
0.0709261
0.0709261
0.0709261
0.0709261
0.0709261
0.0709261
0.0709262
0.0709262
0.0709262
0.0709262
0.0709262
0.0709262
0.0709262
0.0709263
0.0709263
0.0709263
0.0709263
0.0709263
0.0709263
0.0709263
0.0709263
0.0709263
0.0709264
0.0709264
0.0709264
0.0709264
0.0709264
0.0709264
0.0709264
0.0709264
0.0709264
0.0709264
0.0709264
0.0709264
0.0709264
0.0709264
0.0709264
0.0709264
0.0709264
0.0709264
0.0709264
0.0709265
0.0709265
0.0709265
0.0709265
0.0709265
0.0709265
0.0709265
0.0709265
0.0709265
0.0709265
0.0709265
0.0709265
0.0709265
0.0709265
0.0709265
0.0709265
0.0709265
0.0709265
0.0709265
0.0709265
0.0709265
0.0709265
0.0709265
0.0709265
0.0709265
0.0709265
0.0709265
0.0709265
0.0709265
0.0709265
0.0709265
0.0709265
0.0709265
0.0709265
0.0709265
0.0709265
0.0709265
0.0709265
0.0709265
0.0709265
0.0709265
0.0709265
0.0709265
0.0709265
0.0709265
0.0709265
0.0709265
0.0709265
0.0709265
0.0709265
0.0709265
0.0709265
0.0709265
0.0709265
0.0709265
0.0709265
0.0709265
0.0709265
0.0709264
0.0709264
0.0709264
0.0709264
0.0709264
0.0709264
0.0709264
0.0709264
0.0709264
0.0709264
0.0709264
0.0709264
0.0709264
0.0709264
0.0709264
0.0709264
0.0709264
0.0709264
0.0709264
0.0709264
0.0709264
0.0709264
0.0709264
0.0709264
0.0709264
0.0709264
0.0709264
0.0709264
0.0709264
0.0709264
0.0709264
0.0709264
0.0709264
0.0709264
0.0709264
0.0709264
0.0709264
0.0709264
0.0709264
0.0709264
0.0709264
0.0709264
0.0709264
0.0709264
0.0709264
0.0709264
0.0709264
0.0709264
0.0709264
0.0709264
0.0709264
0.0709264
0.0709264
0.0709264
0.0709264
0.0709264
0.0709264
0.0709264
0.0709264
0.0709264
0.0709264
0.0709264
0.0709264
0.0709264
0.0709264
0.0709264
0.0709264
0.0709264
0.0709264
0.0709264
0.0709264
0.0709264
0.0709264
0.0709264
0.0709264
0.0709264
0.0709264
0.0709264
0.0709264
0.0709264
0.0709264
0.0709264
0.0709264
0.0709264
0.0709264
0.0709264
0.0709264
0.0709264
0.0709264
0.0709264
0.0709264
0.0709264
0.0709264
0.0709264
0.0709264
0.0709264
0.0709264
0.0709264
0.0709264
0.0709264
0.0709263
0.0709263
0.0709263
0.0709263
0.0709263
0.0709263
0.0709263
0.0709263
0.0709263
0.0709263
0.0709263
0.0709263
0.0709263
0.0709263
0.0709263
0.0709263
0.0709263
0.0709263
0.0709263
0.0709263
0.0709263
0.0709263
0.0709263
0.0709263
0.0709263
0.0709263
0.0709263
0.0709263
0.0709263
0.0709263
0.0709263
0.0709263
0.0709263
0.0709263
0.0709263
0.0709263
0.0709263
0.0709263
0.0709263
0.0709263
0.0709263
0.0709263
0.0709263
0.0709263
0.0709263
0.0709263
0.0709263
0.0709263
0.0709263
0.0709263
0.0709263
0.0709263
0.0709263
0.0709263
0.0709263
0.0709263
0.0709263
0.0709263
0.0709263
0.0709263
0.0709263
0.0709263
0.0709263
0.0709263
0.0709263
0.0709263
0.0709263
0.0709262
0.0709262
0.0709262
0.0709262
0.0709262
0.0709262
0.0709262
0.0709262
0.0709262
0.0709262
0.0709262
0.0709262
0.0709262
0.0709262
0.0709262
0.0709262
0.0709262
0.0709262
0.0709262
0.0709262
0.0709262
0.0709262
0.0709262
0.0709262
0.0709262
0.0709262
0.0709262
0.0709262
0.0709262
0.0709262
0.0709262
0.0709262
0.0709262
0.0709262
0.0709262
0.0709262
0.0709262
0.0709262
0.0709262
0.0709262
0.0709262
0.0709262
0.0709262
0.0709262
0.0709262
0.0709262
0.0709262
0.0709262
0.0709261
0.0709261
0.0709261
0.0709261
0.0709261
0.0709261
0.0709261
0.0709261
0.0709261
0.0709261
0.0709261
0.0709261
0.0709261
0.0709261
0.0709261
0.0709261
0.0709261
0.0709261
0.0709261
0.0709261
0.0709261
0.0709261
0.0709261
0.0709261
0.0709261
0.0709261
0.0709261
0.0709261
0.0709261
0.0709261
0.0709261
0.0709261
0.0709261
0.0709261
0.0709261
0.0709261
0.0709261
0.070926
0.070926
0.070926
0.070926
0.070926
0.070926
0.070926
0.070926
0.070926
0.070926
0.070926
0.070926
0.070926
0.070926
0.070926
0.070926
0.070926
0.070926
0.070926
0.070926
0.070926
0.070926
0.070926
0.070926
0.070926
0.070926
0.070926
0.070926
0.0709259
0.0709259
0.0709259
0.0709259
0.0709259
0.0709259
0.0709259
0.0709259
0.0709259
0.0709259
0.0709259
0.0709259
0.0709259
0.0709259
0.0709259
0.0709259
0.0709259
0.0709259
0.0709259
0.0709259
0.0709259
0.0709259
0.0709258
0.0709258
0.0709258
0.0709258
0.0709258
0.0709258
0.0709258
0.0709258
0.0709258
0.0709258
0.0709258
0.0709258
0.0709258
0.0709258
0.0709258
0.0709258
0.0709258
0.0709258
0.0709258
0.0709257
0.0709257
0.0709257
0.0709257
0.0709257
0.0709257
0.0709257
0.0709257
0.0709257
0.0709257
0.0709257
0.0709257
0.0709257
0.0709257
0.0709257
0.0709256
0.0709256
0.0709256
0.0709256
0.0709256
0.0709256
0.0709256
0.0709256
0.0709256
0.0709256
0.0709256
0.0709256
0.0709256
0.0709255
0.0709255
0.0709255
0.0709255
0.0709255
0.0709255
0.0709255
0.0709255
0.0709255
0.0709255
0.0709255
0.0709255
0.0709254
0.0709254
0.0709254
0.0709254
0.0709254
0.0709254
0.0709254
0.0709254
0.0709254
0.0709253
0.0709253
0.0709253
0.0709253
0.0709253
0.0709253
0.0709253
0.0709253
0.0709253
0.0709252
0.0709252
0.0709252
0.0709252
0.0709252
0.0709252
0.0709252
0.0709251
0.0709251
0.0709251
0.0709251
0.0709251
0.0709251
0.0709251
0.070925
0.070925
0.070925
0.070925
0.070925
0.070925
0.0709249
0.0709249
0.0709249
0.0709249
0.0709249
0.0709248
0.0709248
0.0709248
0.0709248
0.0709248
0.0709247
0.0709247
0.0709247
0.0709247
0.0709247
0.0709246
0.0709246
0.0709246
0.0709246
0.0709245
0.0709245
0.0709245
0.0709244
0.0709244
0.0709244
0.0709244
0.0709243
0.0709243
0.0709243
0.0709242
0.0709242
0.0709242
0.0709241
0.0709241
0.0709241
0.070924
0.070924
0.0709239
0.0709239
0.0709239
0.0709238
0.0709238
0.0709237
0.0709237
0.0709236
0.0709236
0.0709235
0.0709235
0.0709234
0.0709233
0.0709233
0.0709232
0.0709232
0.0709231
0.070923
0.0709229
0.0709229
0.0709228
0.0709227
0.0709226
0.0709225
0.0709225
0.0709224
0.0709223
0.0709222
0.070922
0.0709219
0.0709218
0.0709217
0.0709216
0.0709214
0.0709213
0.0709211
0.070921
0.0709208
0.0709206
0.0709204
0.0709202
0.07092
0.0709198
0.0709195
0.0709193
0.070919
0.0709187
0.0709184
0.070918
0.0709176
0.0709172
0.0709168
0.0709163
0.0709158
0.0709152
0.0709145
0.0709138
0.070913
0.0709121
0.070911
0.0709098
0.0709084
0.0709068
0.0709049
0.0709026
0.0708998
0.0708964
0.0708922
0.0708868
0.0708796
0.0708698
0.0708556
0.0708336
0.0707961
0.0707258
0.0705767
0.0701957
0.0689865
0.0643841
0.0351523
0.0174692
0.00866308
0.00429575
0.0021316
0.00105877
0.00052642
0.000261958
0.000130437
6.49754e-05
3.2374e-05
1.61321e-05
8.03913e-06
4.00631e-06
1.99666e-06
9.95187e-07
4.96111e-07
2.47373e-07
1.23384e-07
6.15986e-08
3.07672e-08
1.5424e-08
7.79335e-09
3.95974e-09
2.00285e-09
1.35966e-09
8.81412e-10
5.17356e-10
3.332e-10
2.4992e-10
2.12459e-10
1.90387e-10
1.75939e-10
1.70267e-10
1.66782e-10
1.64691e-10
1.63086e-10
1.62364e-10
1.62101e-10
1.61886e-10
1.61753e-10
1.61688e-10
1.6165e-10
1.61619e-10
1.61601e-10
1.61592e-10
1.61589e-10
1.61587e-10
1.61586e-10
1.61586e-10
1.61586e-10
1.61586e-10
1.61586e-10
1.61587e-10
1.61587e-10
1.61588e-10
1.61588e-10
1.61589e-10
1.6159e-10
1.6159e-10
1.61591e-10
1.61592e-10
1.61592e-10
1.61593e-10
1.61594e-10
1.61594e-10
1.61595e-10
1.61595e-10
1.61596e-10
1.61597e-10
1.61597e-10
1.61598e-10
1.61599e-10
1.61599e-10
1.616e-10
1.616e-10
1.61601e-10
1.61601e-10
1.61602e-10
1.61603e-10
1.61603e-10
1.61604e-10
1.61605e-10
1.61605e-10
1.61606e-10
1.61607e-10
1.61607e-10
1.61608e-10
1.61609e-10
1.61609e-10
1.6161e-10
1.6161e-10
1.61611e-10
1.61612e-10
1.61612e-10
1.61613e-10
1.61613e-10
1.61614e-10
1.61615e-10
1.61615e-10
1.61616e-10
1.61617e-10
1.61617e-10
1.61618e-10
1.61619e-10
1.61619e-10
1.6162e-10
1.6162e-10
1.61621e-10
1.61622e-10
1.61622e-10
1.61623e-10
1.61624e-10
1.61624e-10
1.61625e-10
1.61626e-10
1.61626e-10
1.61627e-10
1.61627e-10
1.61628e-10
1.61629e-10
1.61629e-10
1.6163e-10
1.6163e-10
1.61631e-10
1.61632e-10
1.61632e-10
1.61633e-10
1.61634e-10
1.61634e-10
1.61635e-10
1.61635e-10
1.61636e-10
1.61637e-10
1.61637e-10
1.61638e-10
1.61638e-10
1.61639e-10
1.6164e-10
1.6164e-10
1.61641e-10
1.61641e-10
1.61642e-10
1.61643e-10
1.61643e-10
1.61644e-10
1.61645e-10
1.61646e-10
1.61646e-10
1.61647e-10
1.61648e-10
1.61648e-10
1.61649e-10
1.6165e-10
1.61651e-10
1.61651e-10
1.61652e-10
1.61652e-10
1.61653e-10
1.61654e-10
1.61654e-10
1.61655e-10
1.61656e-10
1.61656e-10
1.61657e-10
1.61658e-10
1.61658e-10
1.61659e-10
1.6166e-10
1.6166e-10
1.61661e-10
1.61662e-10
1.61662e-10
1.61663e-10
1.61663e-10
1.61664e-10
1.61665e-10
1.61665e-10
1.61666e-10
1.61666e-10
1.61667e-10
1.61668e-10
1.61668e-10
1.61669e-10
1.61669e-10
1.6167e-10
1.61671e-10
1.61671e-10
1.61672e-10
1.61672e-10
1.61673e-10
1.61674e-10
1.61675e-10
1.61675e-10
1.61676e-10
1.61677e-10
1.61677e-10
1.61678e-10
1.61679e-10
1.61679e-10
1.6168e-10
1.61681e-10
1.61682e-10
1.61682e-10
1.61683e-10
1.61684e-10
1.61684e-10
1.61685e-10
1.61685e-10
1.61686e-10
1.61687e-10
1.61687e-10
1.61688e-10
1.61689e-10
1.61689e-10
1.6169e-10
1.6169e-10
1.61691e-10
1.61692e-10
1.61692e-10
1.61693e-10
1.61694e-10
1.61694e-10
1.61695e-10
1.61696e-10
1.61696e-10
1.61697e-10
1.61698e-10
1.61698e-10
1.61699e-10
1.61699e-10
1.617e-10
1.61701e-10
1.61701e-10
1.61702e-10
1.61703e-10
1.61703e-10
1.61704e-10
1.61705e-10
1.61706e-10
1.61706e-10
1.61707e-10
1.61707e-10
1.61708e-10
1.61709e-10
1.61709e-10
1.6171e-10
1.61711e-10
1.61711e-10
1.61712e-10
1.61712e-10
1.61713e-10
1.61714e-10
1.61714e-10
1.61715e-10
1.61716e-10
1.61716e-10
1.61717e-10
1.61718e-10
1.61718e-10
1.61719e-10
1.6172e-10
1.6172e-10
1.61721e-10
1.61722e-10
1.61722e-10
1.61723e-10
1.61724e-10
1.61724e-10
1.61725e-10
1.61725e-10
1.61726e-10
1.61727e-10
1.61727e-10
1.61728e-10
1.61729e-10
1.61729e-10
1.6173e-10
1.61731e-10
1.61731e-10
1.61732e-10
1.61732e-10
1.61733e-10
1.61734e-10
1.61735e-10
1.61735e-10
1.61736e-10
1.61736e-10
1.61737e-10
1.61738e-10
1.61739e-10
1.61739e-10
1.6174e-10
1.61741e-10
1.61741e-10
1.61742e-10
1.61743e-10
1.61743e-10
1.61744e-10
1.61745e-10
1.61745e-10
1.61746e-10
1.61747e-10
1.61747e-10
1.61748e-10
1.61749e-10
1.61749e-10
1.6175e-10
1.6175e-10
1.61751e-10
1.61752e-10
1.61753e-10
1.61753e-10
1.61754e-10
1.61754e-10
1.61755e-10
1.61755e-10
1.61756e-10
1.61757e-10
1.61758e-10
1.61758e-10
1.61759e-10
1.61759e-10
1.6176e-10
1.61761e-10
1.61762e-10
1.61762e-10
1.61763e-10
1.61764e-10
1.61764e-10
1.61765e-10
1.61766e-10
1.61767e-10
1.61767e-10
1.61768e-10
1.61769e-10
1.61769e-10
1.6177e-10
1.61771e-10
1.61772e-10
1.61772e-10
1.61773e-10
1.61774e-10
1.61774e-10
1.61775e-10
1.61776e-10
1.61776e-10
1.61777e-10
1.61777e-10
1.61778e-10
1.61778e-10
1.61779e-10
1.6178e-10
1.6178e-10
1.61781e-10
1.61782e-10
1.61782e-10
1.61783e-10
1.61784e-10
1.61784e-10
1.61785e-10
1.61785e-10
)
;

boundaryField
{
    fixedWall
    {
        type            zeroGradient;
    }
    outlet
    {
        type            inletOutlet;
        inletValue      uniform 0;
        value           uniform 1.61785e-10;
    }
    defaultFaces
    {
        type            empty;
    }
}


// ************************************************************************* //
