/*--------------------------------*- C++ -*----------------------------------*\
| =========                 |                                                 |
| \\      /  F ield         | OpenFOAM: The Open Source CFD Toolbox           |
|  \\    /   O peration     | Version:  2406                                  |
|   \\  /    A nd           | Website:  www.openfoam.com                      |
|    \\/     M anipulation  |                                                 |
\*---------------------------------------------------------------------------*/
FoamFile
{
    version     2.0;
    format      ascii;
    arch        "LSB;label=32;scalar=64";
    class       volScalarField;
    location    "4";
    object      H2O;
}
// * * * * * * * * * * * * * * * * * * * * * * * * * * * * * * * * * * * * * //

dimensions      [0 0 0 0 0 0 0];

internalField   nonuniform List<scalar> 
1000
(
0.0580663
0.0580663
0.0580663
0.0580663
0.0580663
0.0580663
0.0580663
0.0580663
0.0580664
0.0580664
0.0580664
0.0580664
0.0580664
0.0580664
0.0580664
0.0580664
0.0580664
0.0580665
0.0580665
0.0580665
0.0580665
0.0580665
0.0580665
0.0580665
0.0580665
0.0580666
0.0580666
0.0580666
0.0580666
0.0580666
0.0580666
0.0580666
0.0580666
0.0580667
0.0580667
0.0580667
0.0580667
0.0580667
0.0580667
0.0580667
0.0580667
0.0580667
0.0580667
0.0580668
0.0580668
0.0580668
0.0580668
0.0580668
0.0580668
0.0580668
0.0580668
0.0580668
0.0580668
0.0580668
0.0580668
0.0580668
0.0580668
0.0580668
0.0580668
0.0580668
0.0580668
0.0580669
0.0580669
0.0580669
0.0580669
0.0580669
0.0580669
0.0580669
0.0580669
0.0580669
0.0580669
0.0580669
0.0580669
0.0580669
0.0580669
0.0580669
0.0580669
0.0580669
0.0580669
0.0580669
0.0580669
0.0580669
0.0580669
0.0580669
0.0580669
0.0580669
0.0580669
0.0580669
0.0580669
0.0580669
0.0580669
0.0580669
0.0580669
0.0580669
0.0580669
0.0580669
0.0580669
0.0580669
0.0580669
0.0580669
0.0580669
0.0580669
0.0580669
0.0580669
0.0580669
0.0580669
0.0580669
0.0580669
0.0580669
0.0580669
0.0580669
0.0580669
0.0580669
0.0580669
0.0580669
0.0580669
0.0580669
0.0580669
0.0580669
0.0580669
0.0580669
0.0580669
0.0580669
0.0580669
0.0580669
0.0580669
0.0580669
0.0580669
0.0580669
0.0580669
0.0580669
0.0580669
0.0580669
0.0580669
0.0580669
0.0580669
0.0580669
0.0580669
0.0580669
0.0580668
0.0580668
0.0580668
0.0580668
0.0580668
0.0580668
0.0580668
0.0580668
0.0580668
0.0580668
0.0580668
0.0580668
0.0580668
0.0580668
0.0580668
0.0580668
0.0580668
0.0580668
0.0580668
0.0580668
0.0580668
0.0580668
0.0580668
0.0580668
0.0580668
0.0580668
0.0580668
0.0580668
0.0580668
0.0580668
0.0580668
0.0580668
0.0580668
0.0580668
0.0580668
0.0580668
0.0580668
0.0580668
0.0580668
0.0580668
0.0580668
0.0580668
0.0580668
0.0580668
0.0580668
0.0580668
0.0580668
0.0580668
0.0580668
0.0580668
0.0580668
0.0580668
0.0580668
0.0580668
0.0580668
0.0580668
0.0580668
0.0580668
0.0580668
0.0580668
0.0580668
0.0580668
0.0580668
0.0580668
0.0580668
0.0580668
0.0580668
0.0580668
0.0580668
0.0580668
0.0580668
0.0580668
0.0580668
0.0580668
0.0580668
0.0580668
0.0580668
0.0580668
0.0580668
0.0580668
0.0580668
0.0580668
0.0580668
0.0580668
0.0580668
0.0580668
0.0580668
0.0580668
0.0580668
0.0580668
0.0580668
0.0580668
0.0580668
0.0580668
0.0580668
0.0580668
0.0580668
0.0580668
0.0580668
0.0580668
0.0580668
0.0580668
0.0580668
0.0580668
0.0580668
0.0580668
0.0580668
0.0580668
0.0580668
0.0580668
0.0580668
0.0580667
0.0580667
0.0580667
0.0580667
0.0580667
0.0580667
0.0580667
0.0580667
0.0580667
0.0580667
0.0580667
0.0580667
0.0580667
0.0580667
0.0580667
0.0580667
0.0580667
0.0580667
0.0580667
0.0580667
0.0580667
0.0580667
0.0580667
0.0580667
0.0580667
0.0580667
0.0580667
0.0580667
0.0580667
0.0580667
0.0580667
0.0580667
0.0580667
0.0580667
0.0580667
0.0580667
0.0580667
0.0580667
0.0580667
0.0580667
0.0580667
0.0580667
0.0580667
0.0580667
0.0580667
0.0580667
0.0580667
0.0580667
0.0580667
0.0580667
0.0580667
0.0580667
0.0580667
0.0580667
0.0580667
0.0580667
0.0580667
0.0580667
0.0580667
0.0580667
0.0580667
0.0580667
0.0580667
0.0580667
0.0580667
0.0580667
0.0580667
0.0580667
0.0580667
0.0580667
0.0580666
0.0580666
0.0580666
0.0580666
0.0580666
0.0580666
0.0580666
0.0580666
0.0580666
0.0580666
0.0580666
0.0580666
0.0580666
0.0580666
0.0580666
0.0580666
0.0580666
0.0580666
0.0580666
0.0580666
0.0580666
0.0580666
0.0580666
0.0580666
0.0580666
0.0580666
0.0580666
0.0580666
0.0580666
0.0580666
0.0580666
0.0580666
0.0580666
0.0580666
0.0580666
0.0580666
0.0580666
0.0580666
0.0580666
0.0580666
0.0580666
0.0580666
0.0580666
0.0580666
0.0580666
0.0580666
0.0580666
0.0580666
0.0580665
0.0580665
0.0580665
0.0580665
0.0580665
0.0580665
0.0580665
0.0580665
0.0580665
0.0580665
0.0580665
0.0580665
0.0580665
0.0580665
0.0580665
0.0580665
0.0580665
0.0580665
0.0580665
0.0580665
0.0580665
0.0580665
0.0580665
0.0580665
0.0580665
0.0580665
0.0580665
0.0580665
0.0580665
0.0580665
0.0580665
0.0580665
0.0580665
0.0580665
0.0580665
0.0580664
0.0580664
0.0580664
0.0580664
0.0580664
0.0580664
0.0580664
0.0580664
0.0580664
0.0580664
0.0580664
0.0580664
0.0580664
0.0580664
0.0580664
0.0580664
0.0580664
0.0580664
0.0580664
0.0580664
0.0580664
0.0580664
0.0580664
0.0580664
0.0580664
0.0580664
0.0580664
0.0580663
0.0580663
0.0580663
0.0580663
0.0580663
0.0580663
0.0580663
0.0580663
0.0580663
0.0580663
0.0580663
0.0580663
0.0580663
0.0580663
0.0580663
0.0580663
0.0580663
0.0580663
0.0580663
0.0580663
0.0580663
0.0580662
0.0580662
0.0580662
0.0580662
0.0580662
0.0580662
0.0580662
0.0580662
0.0580662
0.0580662
0.0580662
0.0580662
0.0580662
0.0580662
0.0580662
0.0580662
0.0580662
0.0580661
0.0580661
0.0580661
0.0580661
0.0580661
0.0580661
0.0580661
0.0580661
0.0580661
0.0580661
0.0580661
0.0580661
0.0580661
0.0580661
0.0580661
0.058066
0.058066
0.058066
0.058066
0.058066
0.058066
0.058066
0.058066
0.058066
0.058066
0.058066
0.0580659
0.0580659
0.0580659
0.0580659
0.0580659
0.0580659
0.0580659
0.0580659
0.0580659
0.0580659
0.0580658
0.0580658
0.0580658
0.0580658
0.0580658
0.0580658
0.0580658
0.0580658
0.0580658
0.0580657
0.0580657
0.0580657
0.0580657
0.0580657
0.0580657
0.0580657
0.0580657
0.0580656
0.0580656
0.0580656
0.0580656
0.0580656
0.0580656
0.0580655
0.0580655
0.0580655
0.0580655
0.0580655
0.0580655
0.0580654
0.0580654
0.0580654
0.0580654
0.0580654
0.0580653
0.0580653
0.0580653
0.0580653
0.0580653
0.0580652
0.0580652
0.0580652
0.0580652
0.0580651
0.0580651
0.0580651
0.0580651
0.058065
0.058065
0.058065
0.058065
0.0580649
0.0580649
0.0580649
0.0580648
0.0580648
0.0580648
0.0580647
0.0580647
0.0580647
0.0580646
0.0580646
0.0580645
0.0580645
0.0580645
0.0580644
0.0580644
0.0580643
0.0580643
0.0580642
0.0580642
0.0580641
0.0580641
0.058064
0.0580639
0.0580639
0.0580638
0.0580637
0.0580637
0.0580636
0.0580635
0.0580634
0.0580633
0.0580633
0.0580632
0.0580631
0.058063
0.0580629
0.0580627
0.0580626
0.0580625
0.0580624
0.0580622
0.0580621
0.0580619
0.0580618
0.0580616
0.0580614
0.0580612
0.058061
0.0580608
0.0580605
0.0580602
0.05806
0.0580597
0.0580593
0.058059
0.0580586
0.0580581
0.0580576
0.0580571
0.0580565
0.0580558
0.0580551
0.0580542
0.0580532
0.0580521
0.0580508
0.0580492
0.0580473
0.058045
0.0580423
0.0580388
0.0580344
0.0580285
0.0580205
0.0580089
0.0579908
0.0579602
0.0579026
0.0577805
0.0574686
0.0564787
0.0527107
0.0287789
0.0143019
0.00709239
0.00351689
0.00174512
0.000866807
0.000430976
0.000214462
0.000106788
5.31948e-05
2.65043e-05
1.32072e-05
6.58157e-06
3.27993e-06
1.63465e-06
8.14751e-07
4.06162e-07
2.02522e-07
1.01014e-07
5.04302e-08
2.51889e-08
1.26275e-08
6.38035e-09
3.2418e-09
1.63971e-09
1.11314e-09
7.21605e-10
4.23555e-10
2.72788e-10
2.04608e-10
1.73938e-10
1.55868e-10
1.44039e-10
1.39396e-10
1.36543e-10
1.34831e-10
1.33517e-10
1.32926e-10
1.3271e-10
1.32535e-10
1.32425e-10
1.32372e-10
1.32341e-10
1.32316e-10
1.32302e-10
1.32294e-10
1.32292e-10
1.3229e-10
1.32289e-10
1.32289e-10
1.32289e-10
1.32289e-10
1.32289e-10
1.3229e-10
1.3229e-10
1.3229e-10
1.32291e-10
1.32291e-10
1.32292e-10
1.32292e-10
1.32293e-10
1.32294e-10
1.32294e-10
1.32295e-10
1.32295e-10
1.32296e-10
1.32296e-10
1.32297e-10
1.32297e-10
1.32298e-10
1.32298e-10
1.32299e-10
1.32299e-10
1.323e-10
1.323e-10
1.32301e-10
1.32301e-10
1.32302e-10
1.32302e-10
1.32303e-10
1.32303e-10
1.32304e-10
1.32304e-10
1.32305e-10
1.32305e-10
1.32306e-10
1.32306e-10
1.32307e-10
1.32308e-10
1.32308e-10
1.32309e-10
1.32309e-10
1.3231e-10
1.3231e-10
1.32311e-10
1.32311e-10
1.32312e-10
1.32312e-10
1.32313e-10
1.32313e-10
1.32314e-10
1.32314e-10
1.32315e-10
1.32315e-10
1.32316e-10
1.32316e-10
1.32317e-10
1.32317e-10
1.32318e-10
1.32318e-10
1.32319e-10
1.32319e-10
1.3232e-10
1.3232e-10
1.32321e-10
1.32321e-10
1.32322e-10
1.32322e-10
1.32323e-10
1.32323e-10
1.32324e-10
1.32324e-10
1.32325e-10
1.32325e-10
1.32326e-10
1.32326e-10
1.32327e-10
1.32327e-10
1.32328e-10
1.32328e-10
1.32329e-10
1.32329e-10
1.3233e-10
1.3233e-10
1.32331e-10
1.32331e-10
1.32332e-10
1.32332e-10
1.32333e-10
1.32333e-10
1.32334e-10
1.32334e-10
1.32335e-10
1.32335e-10
1.32336e-10
1.32336e-10
1.32337e-10
1.32338e-10
1.32338e-10
1.32339e-10
1.3234e-10
1.3234e-10
1.32341e-10
1.32342e-10
1.32342e-10
1.32342e-10
1.32343e-10
1.32343e-10
1.32344e-10
1.32345e-10
1.32345e-10
1.32346e-10
1.32346e-10
1.32347e-10
1.32347e-10
1.32348e-10
1.32348e-10
1.32349e-10
1.3235e-10
1.3235e-10
1.3235e-10
1.32351e-10
1.32351e-10
1.32352e-10
1.32352e-10
1.32353e-10
1.32353e-10
1.32354e-10
1.32354e-10
1.32355e-10
1.32355e-10
1.32356e-10
1.32356e-10
1.32357e-10
1.32357e-10
1.32358e-10
1.32358e-10
1.32359e-10
1.32359e-10
1.3236e-10
1.3236e-10
1.32361e-10
1.32362e-10
1.32362e-10
1.32363e-10
1.32363e-10
1.32364e-10
1.32364e-10
1.32365e-10
1.32365e-10
1.32366e-10
1.32367e-10
1.32367e-10
1.32368e-10
1.32368e-10
1.32369e-10
1.32369e-10
1.3237e-10
1.3237e-10
1.32371e-10
1.32372e-10
1.32372e-10
1.32373e-10
1.32373e-10
1.32373e-10
1.32374e-10
1.32374e-10
1.32375e-10
1.32375e-10
1.32376e-10
1.32377e-10
1.32377e-10
1.32378e-10
1.32378e-10
1.32379e-10
1.32379e-10
1.3238e-10
1.3238e-10
1.32381e-10
1.32381e-10
1.32382e-10
1.32382e-10
1.32383e-10
1.32384e-10
1.32384e-10
1.32385e-10
1.32385e-10
1.32386e-10
1.32386e-10
1.32387e-10
1.32387e-10
1.32388e-10
1.32388e-10
1.32389e-10
1.32389e-10
1.3239e-10
1.32391e-10
1.32391e-10
1.32391e-10
1.32392e-10
1.32393e-10
1.32393e-10
1.32394e-10
1.32394e-10
1.32395e-10
1.32395e-10
1.32396e-10
1.32396e-10
1.32397e-10
1.32397e-10
1.32398e-10
1.32399e-10
1.32399e-10
1.32399e-10
1.324e-10
1.32401e-10
1.32401e-10
1.32402e-10
1.32402e-10
1.32403e-10
1.32403e-10
1.32404e-10
1.32404e-10
1.32405e-10
1.32405e-10
1.32406e-10
1.32406e-10
1.32407e-10
1.32407e-10
1.32408e-10
1.32408e-10
1.32409e-10
1.32409e-10
1.3241e-10
1.32411e-10
1.32411e-10
1.32412e-10
1.32412e-10
1.32413e-10
1.32413e-10
1.32414e-10
1.32414e-10
1.32415e-10
1.32416e-10
1.32416e-10
1.32417e-10
1.32417e-10
1.32418e-10
1.32418e-10
1.32419e-10
1.32419e-10
1.3242e-10
1.32421e-10
1.32421e-10
1.32421e-10
1.32422e-10
1.32423e-10
1.32423e-10
1.32424e-10
1.32424e-10
1.32425e-10
1.32425e-10
1.32426e-10
1.32426e-10
1.32427e-10
1.32427e-10
1.32428e-10
1.32428e-10
1.32429e-10
1.32429e-10
1.3243e-10
1.3243e-10
1.32431e-10
1.32432e-10
1.32432e-10
1.32433e-10
1.32433e-10
1.32434e-10
1.32435e-10
1.32435e-10
1.32436e-10
1.32436e-10
1.32437e-10
1.32437e-10
1.32438e-10
1.32439e-10
1.32439e-10
1.3244e-10
1.3244e-10
1.32441e-10
1.32441e-10
1.32442e-10
1.32443e-10
1.32443e-10
1.32444e-10
1.32444e-10
1.32445e-10
1.32445e-10
1.32446e-10
1.32446e-10
1.32447e-10
1.32447e-10
1.32448e-10
1.32448e-10
1.32449e-10
1.32449e-10
1.3245e-10
1.3245e-10
1.32451e-10
1.32451e-10
1.32452e-10
1.32452e-10
)
;

boundaryField
{
    fixedWall
    {
        type            zeroGradient;
    }
    outlet
    {
        type            inletOutlet;
        inletValue      uniform 0;
        value           uniform 1.32452e-10;
    }
    defaultFaces
    {
        type            empty;
    }
}


// ************************************************************************* //
