/*--------------------------------*- C++ -*----------------------------------*\
| =========                 |                                                 |
| \\      /  F ield         | OpenFOAM: The Open Source CFD Toolbox           |
|  \\    /   O peration     | Version:  2406                                  |
|   \\  /    A nd           | Website:  www.openfoam.com                      |
|    \\/     M anipulation  |                                                 |
\*---------------------------------------------------------------------------*/
FoamFile
{
    version     2.0;
    format      ascii;
    arch        "LSB;label=32;scalar=64";
    class       volScalarField;
    location    "4";
    object      O2;
}
// * * * * * * * * * * * * * * * * * * * * * * * * * * * * * * * * * * * * * //

dimensions      [0 0 0 0 0 0 0];

internalField   nonuniform List<scalar> 
1000
(
1.55637e-06
1.55261e-06
1.54606e-06
1.53732e-06
1.52675e-06
1.51463e-06
1.50117e-06
1.48653e-06
1.47082e-06
1.45417e-06
1.43667e-06
1.41838e-06
1.39939e-06
1.37976e-06
1.35955e-06
1.33882e-06
1.31762e-06
1.29601e-06
1.27405e-06
1.25179e-06
1.22928e-06
1.20659e-06
1.18376e-06
1.16085e-06
1.13793e-06
1.11505e-06
1.09226e-06
1.06963e-06
1.04719e-06
1.02502e-06
1.00315e-06
9.81634e-07
9.60516e-07
9.39835e-07
9.19629e-07
8.99931e-07
8.80768e-07
8.62168e-07
8.4415e-07
8.26733e-07
8.09928e-07
7.93747e-07
7.78196e-07
7.63278e-07
7.48993e-07
7.35338e-07
7.22309e-07
7.09898e-07
6.98096e-07
6.86891e-07
6.76271e-07
6.66222e-07
6.56728e-07
6.47774e-07
6.39343e-07
6.31417e-07
6.23979e-07
6.1701e-07
6.10492e-07
6.04408e-07
5.98738e-07
5.93466e-07
5.88572e-07
5.8404e-07
5.79852e-07
5.75992e-07
5.72443e-07
5.69189e-07
5.66216e-07
5.63508e-07
5.61051e-07
5.58831e-07
5.56834e-07
5.55049e-07
5.53463e-07
5.52064e-07
5.50842e-07
5.49785e-07
5.48883e-07
5.48127e-07
5.47509e-07
5.47018e-07
5.46647e-07
5.46389e-07
5.46236e-07
5.46181e-07
5.46217e-07
5.46338e-07
5.46538e-07
5.46813e-07
5.47156e-07
5.47564e-07
5.48031e-07
5.48554e-07
5.49128e-07
5.4975e-07
5.50417e-07
5.51125e-07
5.51871e-07
5.52652e-07
5.53466e-07
5.54311e-07
5.55183e-07
5.56082e-07
5.57005e-07
5.5795e-07
5.58917e-07
5.59902e-07
5.60905e-07
5.61925e-07
5.6296e-07
5.64009e-07
5.65072e-07
5.66147e-07
5.67234e-07
5.68331e-07
5.69439e-07
5.70556e-07
5.71682e-07
5.72816e-07
5.73959e-07
5.75109e-07
5.76266e-07
5.7743e-07
5.786e-07
5.79777e-07
5.8096e-07
5.82148e-07
5.83342e-07
5.84542e-07
5.85747e-07
5.86957e-07
5.88173e-07
5.89393e-07
5.90619e-07
5.9185e-07
5.93085e-07
5.94325e-07
5.9557e-07
5.96817e-07
5.98062e-07
5.99324e-07
6.00591e-07
6.01862e-07
6.03138e-07
6.04419e-07
6.05704e-07
6.06995e-07
6.0829e-07
6.0959e-07
6.10895e-07
6.12205e-07
6.13521e-07
6.14842e-07
6.16168e-07
6.17499e-07
6.18836e-07
6.20179e-07
6.21527e-07
6.2288e-07
6.24239e-07
6.25604e-07
6.26975e-07
6.28352e-07
6.29734e-07
6.31123e-07
6.32517e-07
6.33917e-07
6.35324e-07
6.36737e-07
6.38156e-07
6.39581e-07
6.41013e-07
6.42451e-07
6.43895e-07
6.45346e-07
6.46803e-07
6.48267e-07
6.49738e-07
6.51215e-07
6.52699e-07
6.5419e-07
6.55688e-07
6.57193e-07
6.58704e-07
6.60223e-07
6.61748e-07
6.63281e-07
6.6482e-07
6.66367e-07
6.67921e-07
6.69483e-07
6.71051e-07
6.72627e-07
6.74211e-07
6.75801e-07
6.774e-07
6.79006e-07
6.80619e-07
6.8224e-07
6.83869e-07
6.85505e-07
6.87149e-07
6.88801e-07
6.90461e-07
6.92129e-07
6.93804e-07
6.95488e-07
6.97179e-07
6.98879e-07
7.00587e-07
7.02303e-07
7.04027e-07
7.05759e-07
7.075e-07
7.09249e-07
7.11007e-07
7.12773e-07
7.14547e-07
7.1633e-07
7.18122e-07
7.19922e-07
7.21731e-07
7.23549e-07
7.25376e-07
7.27211e-07
7.29056e-07
7.30909e-07
7.32772e-07
7.34644e-07
7.36525e-07
7.38415e-07
7.40315e-07
7.42224e-07
7.44143e-07
7.46071e-07
7.48009e-07
7.49956e-07
7.51914e-07
7.53881e-07
7.55858e-07
7.57845e-07
7.59842e-07
7.61849e-07
7.63866e-07
7.65894e-07
7.67932e-07
7.6998e-07
7.72039e-07
7.74109e-07
7.76189e-07
7.7828e-07
7.80381e-07
7.82494e-07
7.84618e-07
7.86752e-07
7.88898e-07
7.91055e-07
7.93223e-07
7.95403e-07
7.97594e-07
7.99796e-07
8.02011e-07
8.04237e-07
8.06474e-07
8.08724e-07
8.10986e-07
8.13259e-07
8.15545e-07
8.17843e-07
8.20154e-07
8.22476e-07
8.24812e-07
8.2716e-07
8.29521e-07
8.31895e-07
8.34282e-07
8.36681e-07
8.39095e-07
8.41521e-07
8.43961e-07
8.46415e-07
8.48882e-07
8.51363e-07
8.53858e-07
8.56368e-07
8.58891e-07
8.6143e-07
8.63982e-07
8.6655e-07
8.69132e-07
8.71729e-07
8.74341e-07
8.76969e-07
8.79613e-07
8.82272e-07
8.84948e-07
8.8762e-07
8.90311e-07
8.9304e-07
8.95783e-07
8.98542e-07
9.01318e-07
9.0411e-07
9.0692e-07
9.09748e-07
9.12593e-07
9.15456e-07
9.18337e-07
9.21237e-07
9.24155e-07
9.27092e-07
9.30047e-07
9.33021e-07
9.36015e-07
9.39028e-07
9.42061e-07
9.45113e-07
9.48185e-07
9.51278e-07
9.54391e-07
9.57524e-07
9.60679e-07
9.63854e-07
9.6705e-07
9.70267e-07
9.73506e-07
9.76767e-07
9.80049e-07
9.83354e-07
9.86681e-07
9.9003e-07
9.93401e-07
9.96796e-07
1.00021e-06
1.00365e-06
1.00712e-06
1.01061e-06
1.01412e-06
1.01765e-06
1.02121e-06
1.0248e-06
1.0284e-06
1.03204e-06
1.03569e-06
1.03938e-06
1.04309e-06
1.04682e-06
1.05058e-06
1.05437e-06
1.05818e-06
1.06202e-06
1.06588e-06
1.06978e-06
1.0737e-06
1.07765e-06
1.08162e-06
1.08563e-06
1.08966e-06
1.09373e-06
1.09782e-06
1.10194e-06
1.10609e-06
1.11028e-06
1.11449e-06
1.11873e-06
1.12301e-06
1.12732e-06
1.13166e-06
1.13603e-06
1.14044e-06
1.14488e-06
1.14935e-06
1.15386e-06
1.15841e-06
1.16299e-06
1.1676e-06
1.17225e-06
1.17694e-06
1.18167e-06
1.18643e-06
1.19124e-06
1.19608e-06
1.20096e-06
1.20588e-06
1.21084e-06
1.21585e-06
1.22089e-06
1.22598e-06
1.23111e-06
1.23628e-06
1.2415e-06
1.24677e-06
1.25208e-06
1.25743e-06
1.26283e-06
1.26828e-06
1.27378e-06
1.27933e-06
1.28493e-06
1.29057e-06
1.29627e-06
1.30201e-06
1.30776e-06
1.31361e-06
1.31951e-06
1.32547e-06
1.33149e-06
1.33756e-06
1.3437e-06
1.34989e-06
1.35614e-06
1.36245e-06
1.36883e-06
1.37526e-06
1.38176e-06
1.38832e-06
1.39495e-06
1.40164e-06
1.4084e-06
1.41522e-06
1.42212e-06
1.42908e-06
1.43611e-06
1.44321e-06
1.45039e-06
1.45763e-06
1.46495e-06
1.47234e-06
1.47981e-06
1.48735e-06
1.49496e-06
1.50266e-06
1.51043e-06
1.51828e-06
1.5262e-06
1.53421e-06
1.5423e-06
1.55047e-06
1.55872e-06
1.56705e-06
1.57547e-06
1.58397e-06
1.59257e-06
1.60125e-06
1.61001e-06
1.61887e-06
1.6278e-06
1.63677e-06
1.6459e-06
1.65514e-06
1.66448e-06
1.67391e-06
1.68345e-06
1.6931e-06
1.70285e-06
1.71271e-06
1.72268e-06
1.73277e-06
1.74297e-06
1.75329e-06
1.76373e-06
1.7743e-06
1.78499e-06
1.79581e-06
1.80676e-06
1.81785e-06
1.82907e-06
1.84044e-06
1.85195e-06
1.8636e-06
1.87541e-06
1.88737e-06
1.89949e-06
1.91177e-06
1.92421e-06
1.93682e-06
1.9496e-06
1.96256e-06
1.97569e-06
1.98901e-06
2.00251e-06
2.0162e-06
2.03001e-06
2.04397e-06
2.05826e-06
2.07275e-06
2.08746e-06
2.10237e-06
2.11751e-06
2.13287e-06
2.14845e-06
2.16426e-06
2.18031e-06
2.19659e-06
2.21312e-06
2.22989e-06
2.24692e-06
2.2642e-06
2.28175e-06
2.29956e-06
2.31764e-06
2.33599e-06
2.35464e-06
2.37357e-06
2.39279e-06
2.41232e-06
2.43216e-06
2.45231e-06
2.47279e-06
2.4936e-06
2.51463e-06
2.53603e-06
2.55795e-06
2.58024e-06
2.60292e-06
2.62598e-06
2.64946e-06
2.67337e-06
2.6977e-06
2.72249e-06
2.74771e-06
2.7732e-06
2.79938e-06
2.82607e-06
2.85329e-06
2.88105e-06
2.90936e-06
2.93825e-06
2.96771e-06
2.99777e-06
3.02845e-06
3.05975e-06
3.09171e-06
3.12432e-06
3.15763e-06
3.19163e-06
3.22624e-06
3.26138e-06
3.29753e-06
3.33448e-06
3.37223e-06
3.41082e-06
3.45028e-06
3.49063e-06
3.53191e-06
3.57415e-06
3.61739e-06
3.66167e-06
3.70702e-06
3.7535e-06
3.80115e-06
3.85002e-06
3.90016e-06
3.95162e-06
4.00447e-06
4.05876e-06
4.11454e-06
4.17152e-06
4.23001e-06
4.29067e-06
4.35311e-06
4.4174e-06
4.48359e-06
4.55179e-06
4.62206e-06
4.69452e-06
4.76924e-06
4.84634e-06
4.92593e-06
5.00812e-06
5.09304e-06
5.18084e-06
5.27166e-06
5.36568e-06
5.46306e-06
5.56401e-06
5.66873e-06
5.77746e-06
5.89044e-06
6.00793e-06
6.13021e-06
6.2576e-06
6.39042e-06
6.52902e-06
6.67379e-06
6.82514e-06
6.98352e-06
7.14939e-06
7.32328e-06
7.50575e-06
7.69739e-06
7.89887e-06
8.11087e-06
8.33419e-06
8.56964e-06
8.81815e-06
9.0807e-06
9.35671e-06
9.64841e-06
9.96015e-06
1.02915e-05
1.06445e-05
1.10214e-05
1.1425e-05
1.18582e-05
1.23247e-05
1.28285e-05
1.33743e-05
1.39673e-05
1.46139e-05
1.53214e-05
1.60985e-05
1.69557e-05
1.79058e-05
1.89648e-05
2.01528e-05
2.14952e-05
2.30133e-05
2.47594e-05
2.67891e-05
2.91622e-05
3.19618e-05
3.52984e-05
3.93247e-05
4.4258e-05
5.04188e-05
5.82971e-05
6.86808e-05
8.29279e-05
0.000103566
0.000135657
0.000190102
0.000292287
0.000509129
0.00106317
0.00282153
0.0095142
0.052022
0.077736
0.0905415
0.0968923
0.100039
0.101599
0.102374
0.102758
0.102949
0.103045
0.103092
0.103116
0.103127
0.103133
0.103136
0.103138
0.103138
0.103139
0.103139
0.103139
0.103139
0.103139
0.103139
0.103139
0.103139
0.103139
0.103139
0.103139
0.103139
0.103139
0.103139
0.103139
0.103139
0.103139
0.103139
0.103139
0.103139
0.103139
0.103139
0.103139
0.103139
0.103139
0.103139
0.103139
0.103139
0.103139
0.103139
0.103139
0.103139
0.103139
0.103139
0.103139
0.103139
0.103139
0.103139
0.103139
0.103139
0.103139
0.103139
0.103139
0.103139
0.103139
0.103139
0.103139
0.103139
0.103139
0.103139
0.103139
0.103139
0.103139
0.103139
0.103139
0.103139
0.103139
0.103139
0.103139
0.103139
0.103139
0.103139
0.103139
0.103139
0.103139
0.103139
0.103139
0.103139
0.103139
0.103139
0.103139
0.103139
0.103139
0.103139
0.103139
0.103139
0.103139
0.103139
0.103139
0.103139
0.103139
0.103139
0.103139
0.103139
0.103139
0.103139
0.103139
0.103139
0.103139
0.103139
0.103139
0.103139
0.103139
0.103139
0.103139
0.103139
0.103139
0.103139
0.103139
0.103139
0.103139
0.103139
0.103139
0.103139
0.103139
0.103139
0.103139
0.103139
0.103139
0.103139
0.103139
0.103139
0.103139
0.103139
0.103139
0.103139
0.103139
0.103139
0.103139
0.103139
0.103139
0.103139
0.103139
0.103139
0.103139
0.103139
0.103139
0.103139
0.103139
0.103139
0.103139
0.103139
0.103139
0.103139
0.103139
0.103139
0.103139
0.103139
0.103139
0.103139
0.103139
0.103139
0.103139
0.103139
0.103139
0.103139
0.103139
0.103139
0.103139
0.103139
0.103139
0.103139
0.103139
0.103139
0.103139
0.103139
0.103139
0.103139
0.103139
0.103139
0.103139
0.103139
0.103139
0.103139
0.103139
0.103139
0.103139
0.103139
0.103139
0.103139
0.103139
0.103139
0.103139
0.103139
0.103139
0.103139
0.103139
0.103139
0.103139
0.103139
0.103139
0.103139
0.103139
0.103139
0.103139
0.103139
0.103139
0.103139
0.103139
0.103139
0.103139
0.103139
0.103139
0.103139
0.103139
0.103139
0.103139
0.103139
0.103139
0.103139
0.103139
0.103139
0.103139
0.103139
0.103139
0.103139
0.103139
0.103139
0.103139
0.103139
0.103139
0.103139
0.103139
0.103139
0.103139
0.103139
0.103139
0.103139
0.103139
0.103139
0.103139
0.103139
0.103139
0.103139
0.103139
0.103139
0.103139
0.103139
0.103139
0.103139
0.103139
0.103139
0.103139
0.103139
0.103139
0.103139
0.103139
0.103139
0.103139
0.103139
0.103139
0.103139
0.103139
0.103139
0.103139
0.103139
0.103139
0.103139
0.103139
0.103139
0.103139
0.103139
0.103139
0.103139
0.103139
0.103139
0.103139
0.103139
0.103139
0.103139
0.103139
0.103139
0.103139
0.103139
0.103139
0.103139
0.103139
0.103139
0.103139
0.103139
0.103139
0.103139
0.103139
0.103139
0.103139
0.103139
0.103139
0.103139
0.103139
0.103139
0.103139
0.103139
0.103139
0.103139
0.103139
0.103139
0.103139
0.103139
0.103139
0.103139
0.103139
0.103139
0.103139
0.103139
0.103139
0.103139
0.103139
0.103139
0.103139
0.103139
0.103139
0.103139
0.103139
0.103139
0.103139
0.103139
0.103139
0.103139
0.103139
0.103139
0.103139
0.103139
0.103139
0.103139
0.103139
0.103139
0.103139
0.103139
0.103139
0.103139
0.103139
0.103139
0.103139
0.103139
0.103139
0.103139
0.103139
0.103139
0.103139
0.103139
0.103139
0.103139
0.103139
0.103139
0.103139
0.103139
0.103139
0.103139
0.103139
0.103139
0.103139
0.103139
0.103139
0.103139
0.103139
)
;

boundaryField
{
    fixedWall
    {
        type            zeroGradient;
    }
    outlet
    {
        type            inletOutlet;
        inletValue      uniform 0;
        value           uniform 0.103139;
    }
    defaultFaces
    {
        type            empty;
    }
}


// ************************************************************************* //
