/*--------------------------------*- C++ -*----------------------------------*\
| =========                 |                                                 |
| \\      /  F ield         | OpenFOAM: The Open Source CFD Toolbox           |
|  \\    /   O peration     | Version:  2406                                  |
|   \\  /    A nd           | Website:  www.openfoam.com                      |
|    \\/     M anipulation  |                                                 |
\*---------------------------------------------------------------------------*/
FoamFile
{
    version     2.0;
    format      ascii;
    arch        "LSB;label=32;scalar=64";
    class       surfaceScalarField;
    location    "4";
    object      phi;
}
// * * * * * * * * * * * * * * * * * * * * * * * * * * * * * * * * * * * * * //

dimensions      [1 0 -1 0 0 0 0];

oriented        oriented;

internalField   nonuniform List<scalar> 
999
(
-8.12101e-08
-2.42313e-07
-4.41087e-07
-6.57869e-07
-8.82552e-07
-1.10959e-06
-1.33582e-06
-1.55939e-06
-1.77921e-06
-1.99463e-06
-2.2053e-06
-2.41102e-06
-2.61173e-06
-2.80742e-06
-2.99812e-06
-3.1839e-06
-3.36484e-06
-3.54104e-06
-3.71259e-06
-3.87959e-06
-4.04213e-06
-4.20033e-06
-4.35427e-06
-4.50404e-06
-4.64973e-06
-4.79144e-06
-4.92924e-06
-5.06321e-06
-5.19344e-06
-5.32e-06
-5.44297e-06
-5.5624e-06
-5.67838e-06
-5.79098e-06
-5.90025e-06
-6.00626e-06
-6.10908e-06
-6.20876e-06
-6.30538e-06
-6.39898e-06
-6.48964e-06
-6.57739e-06
-6.66231e-06
-6.74446e-06
-6.82388e-06
-6.90064e-06
-6.9748e-06
-7.0464e-06
-7.1155e-06
-7.18216e-06
-7.24644e-06
-7.30839e-06
-7.36806e-06
-7.42551e-06
-7.48079e-06
-7.53396e-06
-7.58506e-06
-7.63417e-06
-7.68131e-06
-7.72656e-06
-7.76996e-06
-7.81157e-06
-7.85143e-06
-7.8896e-06
-7.92613e-06
-7.96107e-06
-7.99448e-06
-8.02639e-06
-8.05686e-06
-8.08594e-06
-8.11367e-06
-8.14011e-06
-8.1653e-06
-8.18929e-06
-8.21211e-06
-8.23382e-06
-8.25446e-06
-8.27407e-06
-8.29269e-06
-8.31037e-06
-8.32716e-06
-8.34309e-06
-8.35832e-06
-8.37255e-06
-8.38601e-06
-8.3987e-06
-8.41077e-06
-8.42221e-06
-8.43304e-06
-8.44328e-06
-8.45298e-06
-8.46214e-06
-8.4708e-06
-8.47898e-06
-8.4867e-06
-8.494e-06
-8.5009e-06
-8.50742e-06
-8.51357e-06
-8.51939e-06
-8.52489e-06
-8.53009e-06
-8.53501e-06
-8.53967e-06
-8.54408e-06
-8.54826e-06
-8.55223e-06
-8.55599e-06
-8.55957e-06
-8.56297e-06
-8.5662e-06
-8.56929e-06
-8.57223e-06
-8.57505e-06
-8.57774e-06
-8.58032e-06
-8.5828e-06
-8.58518e-06
-8.58747e-06
-8.58968e-06
-8.59182e-06
-8.59388e-06
-8.59589e-06
-8.59783e-06
-8.59972e-06
-8.60157e-06
-8.60337e-06
-8.60513e-06
-8.60685e-06
-8.60854e-06
-8.6102e-06
-8.61183e-06
-8.61344e-06
-8.61502e-06
-8.61659e-06
-8.61814e-06
-8.61967e-06
-8.62119e-06
-8.6227e-06
-8.62419e-06
-8.62568e-06
-8.62716e-06
-8.62863e-06
-8.6301e-06
-8.63155e-06
-8.63301e-06
-8.63446e-06
-8.63591e-06
-8.63736e-06
-8.6388e-06
-8.64024e-06
-8.64168e-06
-8.64313e-06
-8.64457e-06
-8.64601e-06
-8.64745e-06
-8.64889e-06
-8.65033e-06
-8.65178e-06
-8.65322e-06
-8.65467e-06
-8.65612e-06
-8.65757e-06
-8.65902e-06
-8.66047e-06
-8.66193e-06
-8.66338e-06
-8.66484e-06
-8.6663e-06
-8.66776e-06
-8.66922e-06
-8.67069e-06
-8.67215e-06
-8.67362e-06
-8.67509e-06
-8.67656e-06
-8.67803e-06
-8.67951e-06
-8.68098e-06
-8.68246e-06
-8.68394e-06
-8.68542e-06
-8.6869e-06
-8.68839e-06
-8.68987e-06
-8.69136e-06
-8.69285e-06
-8.69434e-06
-8.69583e-06
-8.69732e-06
-8.69881e-06
-8.70031e-06
-8.7018e-06
-8.7033e-06
-8.70479e-06
-8.70629e-06
-8.70779e-06
-8.70929e-06
-8.71079e-06
-8.71229e-06
-8.7138e-06
-8.7153e-06
-8.7168e-06
-8.71831e-06
-8.71981e-06
-8.72132e-06
-8.72283e-06
-8.72434e-06
-8.72585e-06
-8.72735e-06
-8.72887e-06
-8.73038e-06
-8.73189e-06
-8.7334e-06
-8.73491e-06
-8.73643e-06
-8.73794e-06
-8.73946e-06
-8.74097e-06
-8.74249e-06
-8.74401e-06
-8.74553e-06
-8.74705e-06
-8.74857e-06
-8.75009e-06
-8.75161e-06
-8.75313e-06
-8.75465e-06
-8.75618e-06
-8.7577e-06
-8.75922e-06
-8.76075e-06
-8.76227e-06
-8.7638e-06
-8.76533e-06
-8.76686e-06
-8.76839e-06
-8.76991e-06
-8.77144e-06
-8.77298e-06
-8.77451e-06
-8.77604e-06
-8.77757e-06
-8.77911e-06
-8.78064e-06
-8.78218e-06
-8.78371e-06
-8.78525e-06
-8.78679e-06
-8.78833e-06
-8.78987e-06
-8.79141e-06
-8.79295e-06
-8.79449e-06
-8.79603e-06
-8.79757e-06
-8.79912e-06
-8.80066e-06
-8.80221e-06
-8.80375e-06
-8.8053e-06
-8.80684e-06
-8.80839e-06
-8.80994e-06
-8.81149e-06
-8.81304e-06
-8.81459e-06
-8.81614e-06
-8.8177e-06
-8.81925e-06
-8.8208e-06
-8.82236e-06
-8.82392e-06
-8.82547e-06
-8.82703e-06
-8.82859e-06
-8.83015e-06
-8.83172e-06
-8.83328e-06
-8.83485e-06
-8.83641e-06
-8.83798e-06
-8.83955e-06
-8.84112e-06
-8.84269e-06
-8.84427e-06
-8.84584e-06
-8.84742e-06
-8.849e-06
-8.85058e-06
-8.85216e-06
-8.85374e-06
-8.85533e-06
-8.85691e-06
-8.8585e-06
-8.86009e-06
-8.86168e-06
-8.86328e-06
-8.86487e-06
-8.86647e-06
-8.86807e-06
-8.86967e-06
-8.87127e-06
-8.87288e-06
-8.87448e-06
-8.87609e-06
-8.8777e-06
-8.87931e-06
-8.88093e-06
-8.88254e-06
-8.88416e-06
-8.88578e-06
-8.8874e-06
-8.88902e-06
-8.89064e-06
-8.89227e-06
-8.8939e-06
-8.89553e-06
-8.89716e-06
-8.89879e-06
-8.90042e-06
-8.90206e-06
-8.90369e-06
-8.90533e-06
-8.90697e-06
-8.90861e-06
-8.91026e-06
-8.9119e-06
-8.91354e-06
-8.91519e-06
-8.91684e-06
-8.91849e-06
-8.92014e-06
-8.92179e-06
-8.92344e-06
-8.9251e-06
-8.92675e-06
-8.92841e-06
-8.93007e-06
-8.93173e-06
-8.93339e-06
-8.93505e-06
-8.93671e-06
-8.93838e-06
-8.94004e-06
-8.94171e-06
-8.94338e-06
-8.94505e-06
-8.94672e-06
-8.94839e-06
-8.95006e-06
-8.95174e-06
-8.95342e-06
-8.9551e-06
-8.95678e-06
-8.95846e-06
-8.96014e-06
-8.96183e-06
-8.96352e-06
-8.96521e-06
-8.9669e-06
-8.9686e-06
-8.97029e-06
-8.97199e-06
-8.97369e-06
-8.9754e-06
-8.9771e-06
-8.97881e-06
-8.98052e-06
-8.98223e-06
-8.98395e-06
-8.98567e-06
-8.98739e-06
-8.98912e-06
-8.99084e-06
-8.99257e-06
-8.99431e-06
-8.99604e-06
-8.99778e-06
-8.99952e-06
-9.00127e-06
-9.00302e-06
-9.00477e-06
-9.00653e-06
-9.00829e-06
-9.01005e-06
-9.01181e-06
-9.01358e-06
-9.01536e-06
-9.01713e-06
-9.01891e-06
-9.0207e-06
-9.02248e-06
-9.02427e-06
-9.02607e-06
-9.02787e-06
-9.02967e-06
-9.03148e-06
-9.03329e-06
-9.0351e-06
-9.03692e-06
-9.03874e-06
-9.04057e-06
-9.0424e-06
-9.04423e-06
-9.04607e-06
-9.04791e-06
-9.04975e-06
-9.0516e-06
-9.05345e-06
-9.05531e-06
-9.05716e-06
-9.05902e-06
-9.06088e-06
-9.06274e-06
-9.06461e-06
-9.06647e-06
-9.06833e-06
-9.0702e-06
-9.07207e-06
-9.07393e-06
-9.07579e-06
-9.07766e-06
-9.07952e-06
-9.08138e-06
-9.08323e-06
-9.08509e-06
-9.08694e-06
-9.08878e-06
-9.09063e-06
-9.09246e-06
-9.0943e-06
-9.09613e-06
-9.09796e-06
-9.09978e-06
-9.1016e-06
-9.10341e-06
-9.10522e-06
-9.10702e-06
-9.10882e-06
-9.11062e-06
-9.11241e-06
-9.11421e-06
-9.11599e-06
-9.11778e-06
-9.11957e-06
-9.12135e-06
-9.12314e-06
-9.12492e-06
-9.12671e-06
-9.12849e-06
-9.13028e-06
-9.13208e-06
-9.13387e-06
-9.13568e-06
-9.13748e-06
-9.13929e-06
-9.14111e-06
-9.14294e-06
-9.14477e-06
-9.14661e-06
-9.14846e-06
-9.15031e-06
-9.15218e-06
-9.15406e-06
-9.15594e-06
-9.15784e-06
-9.15974e-06
-9.16165e-06
-9.16358e-06
-9.16551e-06
-9.16746e-06
-9.16941e-06
-9.17137e-06
-9.17334e-06
-9.17532e-06
-9.17731e-06
-9.17931e-06
-9.18131e-06
-9.18331e-06
-9.18533e-06
-9.18734e-06
-9.18936e-06
-9.19139e-06
-9.19341e-06
-9.19544e-06
-9.19746e-06
-9.19948e-06
-9.2015e-06
-9.20352e-06
-9.20553e-06
-9.20754e-06
-9.20954e-06
-9.21154e-06
-9.21352e-06
-9.2155e-06
-9.21748e-06
-9.21944e-06
-9.2214e-06
-9.22335e-06
-9.22529e-06
-9.22723e-06
-9.22916e-06
-9.23109e-06
-9.23302e-06
-9.23494e-06
-9.23686e-06
-9.23878e-06
-9.24071e-06
-9.24263e-06
-9.24457e-06
-9.2465e-06
-9.24845e-06
-9.25041e-06
-9.25237e-06
-9.25434e-06
-9.25633e-06
-9.25833e-06
-9.26033e-06
-9.26235e-06
-9.26437e-06
-9.26641e-06
-9.26845e-06
-9.27049e-06
-9.27254e-06
-9.27459e-06
-9.27664e-06
-9.27869e-06
-9.28073e-06
-9.28277e-06
-9.2848e-06
-9.28681e-06
-9.28882e-06
-9.29081e-06
-9.29279e-06
-9.29476e-06
-9.29671e-06
-9.29865e-06
-9.30058e-06
-9.3025e-06
-9.30441e-06
-9.30632e-06
-9.30823e-06
-9.31014e-06
-9.31205e-06
-9.31398e-06
-9.31591e-06
-9.31786e-06
-9.31984e-06
-9.32183e-06
-9.32385e-06
-9.32589e-06
-9.32796e-06
-9.33006e-06
-9.33219e-06
-9.33433e-06
-9.3365e-06
-9.33869e-06
-9.34089e-06
-9.3431e-06
-9.34531e-06
-9.34752e-06
-9.34972e-06
-9.35191e-06
-9.35408e-06
-9.35624e-06
-9.35836e-06
-9.36046e-06
-9.36254e-06
-9.36459e-06
-9.36662e-06
-9.36864e-06
-9.37064e-06
-9.37263e-06
-9.37462e-06
-9.37662e-06
-9.37863e-06
-9.38065e-06
-9.38269e-06
-9.38475e-06
-9.38682e-06
-9.3889e-06
-9.39099e-06
-9.39308e-06
-9.39515e-06
-9.39721e-06
-9.39922e-06
-9.4012e-06
-9.40311e-06
-9.40494e-06
-9.40669e-06
-9.40834e-06
-9.40989e-06
-9.41131e-06
-9.41261e-06
-9.41379e-06
-9.41485e-06
-9.41579e-06
-9.41662e-06
-9.41737e-06
-9.41806e-06
-9.41872e-06
-9.41937e-06
-9.42005e-06
-9.42078e-06
-9.42156e-06
-9.4224e-06
-9.42325e-06
-9.42408e-06
-9.42482e-06
-9.42539e-06
-9.42572e-06
-9.42576e-06
-9.42549e-06
-9.42496e-06
-9.42425e-06
-9.42354e-06
-9.423e-06
-9.42282e-06
-9.42313e-06
-9.42385e-06
-9.42466e-06
-9.42484e-06
-9.42323e-06
-9.41823e-06
-9.40785e-06
-9.38983e-06
-9.36144e-06
-9.31914e-06
-9.258e-06
-9.17143e-06
-9.04849e-06
-8.85202e-06
-8.4061e-06
-6.9501e-06
-1.51859e-06
1.95437e-05
0.000124147
0.000287836
0.000467673
0.000632105
0.000757186
0.000839792
0.000889531
0.000917883
0.000933554
0.000942071
0.000946658
0.000949115
0.000950427
0.000951124
0.000951492
0.000951685
0.000951784
0.000951833
0.000951855
0.000951863
0.000951864
0.00095186
0.000951855
0.000951848
0.000951841
0.000951833
0.000951825
0.000951818
0.00095181
0.000951802
0.000951794
0.000951786
0.000951778
0.000951771
0.000951763
0.000951755
0.000951748
0.00095174
0.000951732
0.000951725
0.000951717
0.00095171
0.000951702
0.000951695
0.000951687
0.00095168
0.000951672
0.000951665
0.000951658
0.00095165
0.000951643
0.000951636
0.000951629
0.000951622
0.000951614
0.000951607
0.0009516
0.000951593
0.000951586
0.000951579
0.000951572
0.000951565
0.000951558
0.000951551
0.000951544
0.000951537
0.000951531
0.000951524
0.000951517
0.00095151
0.000951504
0.000951497
0.00095149
0.000951484
0.000951477
0.00095147
0.000951464
0.000951457
0.000951451
0.000951444
0.000951438
0.000951431
0.000951425
0.000951419
0.000951412
0.000951406
0.0009514
0.000951393
0.000951387
0.000951381
0.000951375
0.000951369
0.000951363
0.000951356
0.00095135
0.000951344
0.000951338
0.000951332
0.000951326
0.00095132
0.000951314
0.000951309
0.000951303
0.000951297
0.000951291
0.000951285
0.000951279
0.000951274
0.000951268
0.000951262
0.000951257
0.000951251
0.000951245
0.00095124
0.000951234
0.000951229
0.000951223
0.000951218
0.000951212
0.000951207
0.000951201
0.000951196
0.000951191
0.000951185
0.00095118
0.000951175
0.000951169
0.000951164
0.000951159
0.000951154
0.000951149
0.000951144
0.000951138
0.000951133
0.000951128
0.000951123
0.000951118
0.000951113
0.000951108
0.000951103
0.000951098
0.000951093
0.000951089
0.000951084
0.000951079
0.000951074
0.000951069
0.000951065
0.00095106
0.000951055
0.00095105
0.000951046
0.000951041
0.000951036
0.000951032
0.000951027
0.000951023
0.000951018
0.000951014
0.000951009
0.000951005
0.000951
0.000950996
0.000950992
0.000950987
0.000950983
0.000950978
0.000950974
0.00095097
0.000950966
0.000950962
0.000950957
0.000950953
0.000950949
0.000950945
0.000950941
0.000950937
0.000950933
0.000950929
0.000950925
0.000950921
0.000950917
0.000950913
0.000950909
0.000950905
0.000950901
0.000950897
0.000950893
0.00095089
0.000950886
0.000950882
0.000950878
0.000950875
0.000950871
0.000950867
0.000950864
0.00095086
0.000950856
0.000950853
0.000950849
0.000950846
0.000950842
0.000950839
0.000950835
0.000950832
0.000950828
0.000950825
0.000950821
0.000950818
0.000950815
0.000950811
0.000950808
0.000950805
0.000950802
0.000950798
0.000950795
0.000950792
0.000950789
0.000950786
0.000950783
0.000950779
0.000950776
0.000950773
0.00095077
0.000950767
0.000950764
0.000950761
0.000950758
0.000950755
0.000950753
0.00095075
0.000950747
0.000950744
0.000950741
0.000950738
0.000950736
0.000950733
0.00095073
0.000950727
0.000950725
0.000950722
0.000950719
0.000950717
0.000950714
0.000950712
0.000950709
0.000950706
0.000950704
0.000950701
0.000950699
0.000950696
0.000950694
0.000950692
0.000950689
0.000950687
0.000950684
0.000950682
0.00095068
0.000950677
0.000950675
0.000950673
0.000950671
0.000950669
0.000950666
0.000950664
0.000950662
0.00095066
0.000950658
0.000950656
0.000950654
0.000950652
0.00095065
0.000950648
0.000950646
0.000950644
0.000950642
0.00095064
0.000950638
0.000950636
0.000950634
0.000950632
0.000950631
0.000950629
0.000950627
0.000950625
0.000950623
0.000950622
0.00095062
0.000950618
0.000950617
0.000950615
0.000950614
0.000950612
0.00095061
0.000950609
0.000950607
0.000950606
0.000950604
0.000950603
0.000950601
0.0009506
0.000950598
0.000950597
0.000950596
0.000950594
0.000950593
0.000950592
0.00095059
0.000950589
0.000950588
0.000950587
0.000950585
0.000950584
0.000950583
0.000950582
0.000950581
0.00095058
0.000950579
0.000950578
0.000950577
0.000950576
0.000950575
0.000950574
0.000950573
0.000950572
0.000950571
0.00095057
0.000950569
0.000950568
0.000950567
0.000950566
0.000950565
0.000950565
0.000950564
0.000950563
0.000950562
0.000950562
0.000950561
0.00095056
0.00095056
0.000950559
0.000950558
0.000950558
0.000950557
0.000950557
0.000950556
0.000950556
0.000950555
0.000950555
0.000950554
0.000950554
0.000950554
0.000950553
0.000950553
0.000950553
0.000950552
0.000950552
0.000950552
0.000950551
0.000950551
0.000950551
0.000950551
)
;

boundaryField
{
    fixedWall
    {
        type            calculated;
        value           uniform 0;
    }
    outlet
    {
        type            calculated;
        value           uniform 0.000950551;
    }
    defaultFaces
    {
        type            empty;
    }
}


// ************************************************************************* //
