/*--------------------------------*- C++ -*----------------------------------*\
| =========                 |                                                 |
| \\      /  F ield         | OpenFOAM: The Open Source CFD Toolbox           |
|  \\    /   O peration     | Version:  2406                                  |
|   \\  /    A nd           | Website:  www.openfoam.com                      |
|    \\/     M anipulation  |                                                 |
\*---------------------------------------------------------------------------*/
FoamFile
{
    version     2.0;
    format      ascii;
    arch        "LSB;label=32;scalar=64";
    class       volScalarField;
    location    "4";
    object      Qdot;
}
// * * * * * * * * * * * * * * * * * * * * * * * * * * * * * * * * * * * * * //

dimensions      [1 -1 -3 0 0 0 0];

internalField   nonuniform List<scalar> 
1000
(
-1.00269e-07
-1.00268e-07
-7.54061e-08
1.10841e-07
1.033e-06
5.13504e-06
2.01268e-05
6.30184e-05
0.000167339
0.000388862
0.000811254
0.00154816
0.00274199
0.00455921
0.00718168
0.0107964
0.0155834
0.021704
0.0292902
0.0384357
0.0491901
0.0615553
0.0754855
0.090889
0.107633
0.125551
0.144449
0.164112
0.184318
0.20484
0.225458
0.245962
0.266157
0.285871
0.304954
0.32328
0.340748
0.357282
0.372831
0.387363
0.400867
0.41335
0.424832
0.435346
0.444935
0.45365
0.461546
0.468683
0.475121
0.480922
0.486147
0.490855
0.495103
0.498945
0.502431
0.505609
0.508523
0.511211
0.51371
0.516052
0.518267
0.520378
0.522411
0.524383
0.526312
0.528212
0.530097
0.531976
0.533859
0.535752
0.537661
0.539591
0.541545
0.543527
0.545536
0.547576
0.549646
0.551747
0.553878
0.556038
0.558228
0.560445
0.56269
0.564956
0.567244
0.569545
0.571884
0.574244
0.576624
0.579021
0.581435
0.583865
0.586309
0.588768
0.591239
0.593722
0.596217
0.598723
0.601239
0.603765
0.606301
0.608846
0.6114
0.613963
0.616534
0.619115
0.621704
0.624301
0.626907
0.629522
0.632146
0.634778
0.63742
0.640072
0.642732
0.645403
0.648083
0.650774
0.653475
0.656188
0.658911
0.661645
0.664391
0.667149
0.66992
0.672702
0.675498
0.678307
0.681129
0.683964
0.686814
0.689678
0.692557
0.69545
0.698358
0.701282
0.704221
0.707177
0.710148
0.713127
0.716107
0.719135
0.722179
0.72524
0.728317
0.731412
0.734524
0.737654
0.740803
0.74397
0.747156
0.750362
0.753587
0.756831
0.760096
0.76338
0.766686
0.770012
0.773359
0.776727
0.780116
0.783527
0.78696
0.790415
0.793893
0.797393
0.800916
0.804461
0.80803
0.811623
0.815239
0.818879
0.822543
0.826232
0.829945
0.833683
0.837447
0.841235
0.845049
0.848889
0.852755
0.856647
0.860565
0.864511
0.868483
0.872482
0.876509
0.880564
0.884647
0.888758
0.892897
0.897065
0.901262
0.905489
0.909745
0.91403
0.918346
0.922692
0.927068
0.931475
0.935914
0.940384
0.944885
0.949419
0.953984
0.958582
0.963213
0.967877
0.972575
0.977306
0.982071
0.98687
0.991704
0.996573
1.00148
1.00642
1.01139
1.0164
1.02145
1.02654
1.03166
1.03682
1.04202
1.04725
1.05253
1.05784
1.0632
1.06859
1.07403
1.0795
1.08502
1.09057
1.09617
1.10181
1.1075
1.11322
1.11899
1.12481
1.13067
1.13657
1.14252
1.14852
1.15456
1.16065
1.16678
1.17297
1.1792
1.18548
1.19181
1.19819
1.20462
1.2111
1.21764
1.22422
1.23086
1.23755
1.24429
1.25109
1.25794
1.26485
1.27181
1.27883
1.28591
1.29305
1.30024
1.30749
1.3148
1.32217
1.32961
1.3371
1.34466
1.35228
1.35996
1.3677
1.37552
1.38339
1.39134
1.39935
1.40743
1.41558
1.42379
1.43208
1.44044
1.44887
1.45738
1.46595
1.47461
1.48334
1.49214
1.50103
1.50999
1.51903
1.52815
1.53736
1.54664
1.55602
1.56548
1.57495
1.58452
1.59426
1.60408
1.61399
1.62398
1.63407
1.64426
1.65454
1.66492
1.67539
1.68597
1.69664
1.70742
1.71831
1.7293
1.74039
1.75159
1.7629
1.77433
1.78586
1.79751
1.80927
1.82115
1.83315
1.84526
1.8575
1.86986
1.88235
1.89496
1.90769
1.92056
1.93356
1.94669
1.95995
1.97335
1.98688
2.00055
2.01437
2.02832
2.04242
2.05667
2.07106
2.08561
2.1003
2.11515
2.13016
2.14532
2.16064
2.17612
2.19176
2.20758
2.22356
2.23971
2.25603
2.27253
2.2892
2.30606
2.32309
2.34032
2.35773
2.37533
2.39313
2.41112
2.42931
2.4477
2.4663
2.48511
2.50413
2.52337
2.54282
2.5625
2.5824
2.60253
2.6229
2.6435
2.66435
2.68543
2.70677
2.72836
2.75021
2.77232
2.79469
2.81734
2.84026
2.86346
2.88695
2.91072
2.93479
2.95916
2.98383
3.00882
3.03412
3.05974
3.08569
3.11197
3.13858
3.16555
3.19286
3.22054
3.24857
3.27698
3.30577
3.33494
3.3645
3.39444
3.42448
3.45519
3.48635
3.51795
3.55
3.5825
3.61546
3.64888
3.68277
3.71714
3.752
3.78736
3.82323
3.85962
3.89654
3.93401
3.97202
4.01059
4.04973
4.08946
4.12977
4.17069
4.21222
4.25437
4.29716
4.3406
4.38469
4.42946
4.4749
4.52104
4.56789
4.61545
4.66375
4.71279
4.76259
4.81316
4.86452
4.91669
4.96967
5.02349
5.07816
5.1337
5.19013
5.24747
5.30559
5.36422
5.42441
5.48558
5.54776
5.61098
5.67527
5.74064
5.80713
5.87477
5.94357
6.01358
6.08483
6.15733
6.23113
6.30626
6.38275
6.46064
6.53996
6.62075
6.70306
6.78691
6.87236
6.95945
7.04821
7.1387
7.23096
7.32504
7.42099
7.51886
7.61871
7.72058
7.82453
7.93063
8.03891
8.14947
8.26171
8.37586
8.4936
8.61386
8.7367
8.86221
8.99045
9.12149
9.25543
9.39233
9.53228
9.67536
9.82166
9.97127
10.1243
10.2808
10.4409
10.6048
10.7724
10.944
11.1196
11.2994
11.4835
11.672
11.8651
12.0629
12.2657
12.4734
12.6849
12.9023
13.1271
13.3574
13.5937
13.8363
14.0855
14.3414
14.6044
14.8747
15.1525
15.4353
15.7289
16.031
16.342
16.6624
16.9923
17.3322
17.6824
18.0433
18.4154
18.799
19.1947
19.6029
20.0241
20.459
20.9067
21.3653
21.8433
22.337
22.8474
23.3751
23.921
24.4859
25.0707
25.6763
26.3038
26.9543
27.629
28.3291
29.0559
29.811
30.5958
31.412
32.2613
33.1455
34.067
35.0203
36.012
37.0567
38.1471
39.2859
40.4762
41.7209
43.0233
44.3871
45.8159
47.314
48.8857
50.5359
52.27
54.0938
56.0135
58.0362
60.1695
62.4218
64.8024
67.3214
69.9901
72.8207
75.8268
79.0233
82.4268
86.0555
89.9297
94.0717
98.5065
103.262
108.369
113.861
119.779
126.163
133.064
140.535
148.637
157.441
167.027
177.416
188.721
201.223
214.952
230.084
246.821
265.405
286.123
309.317
335.399
364.865
398.315
436.486
480.289
530.86
589.631
658.433
739.661
836.509
953.332
1095.05
1269.31
1489.69
1770
2132.43
2609.48
3250.57
4134.17
5390.34
7244.59
10110.9
14813
23174
39792.9
78372
187927
565534
1.99318e+06
7.66514e+06
3.73827e+07
4.83984e+06
19863.2
77.3084
0.910648
0.0440922
0.00687136
0.00235216
0.00129495
0.000934856
0.00078381
0.000713076
0.000677783
0.000659697
0.00065023
0.000645207
0.00064253
0.000641062
0.000640318
0.000639883
0.000639805
0.000639686
0.000639625
0.00063952
0.000639582
0.000639503
0.000639578
0.000639581
0.000639586
0.000639592
0.000639596
0.0006396
0.000639531
0.000639613
0.000639543
0.000639624
0.00063963
0.000639561
0.000639566
0.000639647
0.000639576
0.000639657
0.000639663
0.000639669
0.000639674
0.000639682
0.000639613
0.000639618
0.000639698
0.000639705
0.000639634
0.000639715
0.000639646
0.00063965
0.000639657
0.000639662
0.000639667
0.000639672
0.000639755
0.000639762
0.000639691
0.000639698
0.00063978
0.000639711
0.000639718
0.000639723
0.000639727
0.000639809
0.000639739
0.000639822
0.000639826
0.000639756
0.000639838
0.000639843
0.000639772
0.000639854
0.000639786
0.000639791
0.000639795
0.000639802
0.000639809
0.000639813
0.000639744
0.000639825
0.00063983
0.000639839
0.000639769
0.000639774
0.000639778
0.000639862
0.000639792
0.000639797
0.000639803
0.00063981
0.00063989
0.000639821
0.000639827
0.000639907
0.000639914
0.00063992
0.000639849
0.000639931
0.000639862
0.000639867
0.000639948
0.000639878
0.000639961
0.000639967
0.000639971
0.000639977
0.000639984
0.000639914
0.000639995
0.000639925
0.000640008
0.000640013
0.000639943
0.000640024
0.000639954
0.000640035
0.000640041
0.000639972
0.000639977
0.000640057
0.000640065
0.000639994
0.00064
0.000640005
0.000640086
0.000640091
0.000640098
0.000640103
0.000640032
0.000640039
0.000640121
0.00064005
0.000640057
0.000640137
0.000640141
0.000640147
0.000640078
0.000640158
0.000640166
0.000640171
0.000640101
0.000640184
0.000640188
0.000640195
0.000640204
0.000640132
0.000640216
0.000640223
0.000640228
0.000640161
0.000640244
0.000640173
0.000640253
0.00064026
0.00064019
0.000640196
0.000640203
0.000640283
0.000640288
0.000640293
0.0006403
0.000640232
0.000640313
0.000640243
0.000640327
0.000640332
0.00064026
0.000640342
0.000640349
0.000640354
0.000640359
0.000640364
0.000640369
0.000640376
0.000640306
0.000640386
0.000640391
0.000640324
0.000640328
0.000640408
0.00064034
0.00064042
0.000640425
0.000640356
0.000640435
0.000640443
0.000640372
0.000640454
0.000640384
0.000640392
0.000640475
0.000640479
0.00064041
0.000640491
0.000640422
0.000640428
0.000640434
0.000640442
0.000640448
0.000640454
0.000640536
0.000640542
0.000640548
0.000640553
0.000640561
0.000640565
0.000640497
0.000640503
0.000640507
0.000640513
0.000640518
0.000640522
0.000640529
0.000640534
0.000640464
0.000640545
0.000640551
0.000640557
0.000640563
0.000640567
0.000640574
0.000640581
0.000640511
0.000640594
0.000640599
0.000640529
0.000640611
0.000640541
0.00064062
0.000640627
0.000640558
0.000640566
0.000640571
0.000640651
0.000640582
0.000640663
0.00064067
0.000640676
0.000640681
0.000640612
0.000640617
0.000640623
0.000640703
0.000640635
0.000640716
0.000640721
0.000640728
0.000640733
0.000640663
0.000640745
0.00064075
0.000640756
0.000640763
0.000640767
0.000640774
0.000640781
0.000640786
0.000640791
0.000640799
0.000640805
0.000640809
0.000640741
0.000640746
0.000640828
0.000640758
0.000640839
0.000640844
0.00064085
0.000640855
0.00064086
0.000640866
0.000640798
0.000640879
0.000640884
0.000640814
0.000640897
0.000640827
0.000640907
0.000640913
0.000640844
0.000640927
0.000640932
0.000640938
0.000640943
0.00064095
0.000640956
0.000640886
0.000640966
0.000640972
0.00064098
0.000640987
0.000640993
0.000640922
0.000641004
0.000641009
0.000641017
0.000641022
0.000641027
0.000641034
0.00064104
0.000641045
0.000640973
0.000641056
0.000640988
0.000641068
0.000641073
0.000641081
0.000641086
0.000641092
0.000641097
0.000641102
0.000641108
0.000641113
0.000641044
0.000641124
0.000641132
0.000641138
0.000641141
0.000641148
0.000641154
0.000641085
0.000641168
0.000641173
0.000641179
0.000641112
0.000641117
0.000641124
0.000641206
0.000641211
0.000641218
0.000641223
0.000641229
0.000641236
0.000641242
0.000641249
0.000641256
0.000641262
0.000641268
0.0006412
0.000641207
0.000641136
0.000641218
0.000641223
0.000641227
0.000641232
0.000641239
0.000641243
0.000641173
0.000641178
0.00064126
0.000641266
0.00064127
0.000641277
0.000641282
0.000641287
0.000641218
0.0006413
0.000641305
0.000641234
)
;

boundaryField
{
    fixedWall
    {
        type            calculated;
        value           uniform 0;
    }
    outlet
    {
        type            calculated;
        value           uniform 0;
    }
    defaultFaces
    {
        type            empty;
    }
}


// ************************************************************************* //
