/*--------------------------------*- C++ -*----------------------------------*\
| =========                 |                                                 |
| \\      /  F ield         | OpenFOAM: The Open Source CFD Toolbox           |
|  \\    /   O peration     | Version:  2406                                  |
|   \\  /    A nd           | Website:  www.openfoam.com                      |
|    \\/     M anipulation  |                                                 |
\*---------------------------------------------------------------------------*/
FoamFile
{
    version     2.0;
    format      ascii;
    arch        "LSB;label=32;scalar=64";
    class       volScalarField;
    location    "4";
    object      T;
}
// * * * * * * * * * * * * * * * * * * * * * * * * * * * * * * * * * * * * * //

dimensions      [0 0 0 1 0 0 0];

internalField   nonuniform List<scalar> 
1000
(
314.058
351.034
383.951
413.707
440.901
465.961
489.203
510.87
531.154
550.209
568.161
585.114
601.156
616.363
630.799
644.52
657.576
670.009
681.859
693.159
703.942
714.234
724.063
733.452
742.421
750.992
759.182
767.01
774.49
781.639
788.471
794.998
801.234
807.19
812.879
818.311
823.496
828.444
833.165
837.667
841.96
846.052
849.951
853.665
857.2
860.565
863.766
866.809
869.702
872.451
875.061
877.538
879.888
882.116
884.228
886.228
888.121
889.913
891.608
893.209
894.722
896.149
897.497
898.767
899.964
901.091
902.152
903.15
904.088
904.969
905.796
906.571
907.298
907.979
908.617
909.213
909.77
910.291
910.777
911.23
911.652
912.045
912.411
912.751
913.066
913.357
913.629
913.881
914.115
914.331
914.53
914.715
914.885
915.041
915.185
915.318
915.44
915.552
915.654
915.748
915.834
915.913
915.984
916.05
916.109
916.163
916.212
916.257
916.297
916.334
916.367
916.396
916.423
916.447
916.469
916.488
916.505
916.52
916.534
916.546
916.557
916.566
916.575
916.582
916.588
916.594
916.598
916.603
916.606
916.609
916.612
916.614
916.616
916.617
916.618
916.619
916.62
916.62
916.621
916.621
916.621
916.621
916.621
916.621
916.62
916.62
916.62
916.619
916.619
916.618
916.618
916.618
916.617
916.617
916.616
916.616
916.615
916.614
916.614
916.613
916.613
916.612
916.612
916.611
916.611
916.61
916.61
916.609
916.608
916.608
916.607
916.606
916.606
916.605
916.604
916.604
916.603
916.602
916.601
916.601
916.6
916.599
916.598
916.597
916.596
916.595
916.594
916.593
916.592
916.591
916.59
916.589
916.588
916.587
916.586
916.585
916.584
916.582
916.581
916.58
916.579
916.577
916.576
916.575
916.573
916.572
916.571
916.569
916.568
916.567
916.565
916.564
916.562
916.561
916.559
916.558
916.556
916.555
916.553
916.552
916.55
916.549
916.547
916.546
916.544
916.543
916.541
916.54
916.538
916.537
916.535
916.534
916.532
916.531
916.529
916.528
916.526
916.525
916.523
916.522
916.521
916.519
916.518
916.516
916.515
916.514
916.512
916.511
916.51
916.508
916.507
916.506
916.505
916.503
916.502
916.501
916.5
916.499
916.498
916.497
916.495
916.494
916.493
916.492
916.491
916.491
916.49
916.489
916.488
916.487
916.486
916.486
916.485
916.484
916.483
916.483
916.482
916.482
916.481
916.481
916.48
916.48
916.479
916.479
916.479
916.478
916.478
916.478
916.477
916.477
916.477
916.477
916.477
916.477
916.476
916.476
916.476
916.476
916.476
916.476
916.476
916.476
916.477
916.477
916.477
916.477
916.477
916.477
916.477
916.478
916.478
916.478
916.478
916.478
916.479
916.479
916.479
916.479
916.48
916.48
916.48
916.481
916.481
916.481
916.482
916.482
916.482
916.483
916.483
916.484
916.484
916.484
916.485
916.485
916.486
916.486
916.487
916.487
916.488
916.488
916.489
916.489
916.49
916.491
916.491
916.492
916.493
916.493
916.494
916.495
916.495
916.496
916.497
916.498
916.498
916.499
916.5
916.501
916.502
916.503
916.504
916.505
916.505
916.506
916.507
916.508
916.509
916.51
916.511
916.512
916.513
916.514
916.515
916.516
916.517
916.518
916.519
916.52
916.521
916.522
916.523
916.524
916.525
916.526
916.527
916.528
916.529
916.53
916.53
916.531
916.532
916.533
916.533
916.534
916.534
916.535
916.535
916.536
916.536
916.537
916.537
916.537
916.537
916.537
916.537
916.537
916.537
916.537
916.536
916.536
916.536
916.535
916.534
916.534
916.533
916.532
916.531
916.53
916.529
916.528
916.527
916.525
916.524
916.523
916.521
916.52
916.518
916.517
916.515
916.514
916.512
916.511
916.509
916.508
916.506
916.505
916.503
916.502
916.501
916.5
916.499
916.498
916.497
916.496
916.496
916.495
916.495
916.495
916.495
916.495
916.495
916.495
916.496
916.496
916.497
916.498
916.499
916.5
916.501
916.502
916.503
916.505
916.506
916.508
916.509
916.511
916.512
916.514
916.515
916.517
916.518
916.52
916.521
916.523
916.524
916.525
916.526
916.527
916.528
916.528
916.529
916.529
916.53
916.53
916.53
916.53
916.53
916.529
916.529
916.528
916.528
916.527
916.526
916.525
916.524
916.523
916.522
916.521
916.52
916.519
916.518
916.517
916.516
916.516
916.515
916.514
916.514
916.513
916.513
916.513
916.513
916.512
916.512
916.512
916.513
916.513
916.513
916.513
916.513
916.513
916.514
916.514
916.514
916.514
916.514
916.513
916.513
916.513
916.513
916.512
916.512
916.511
916.511
916.51
916.51
916.51
916.509
916.509
916.509
916.509
916.51
916.51
916.511
916.511
916.512
916.513
916.515
916.516
916.517
916.519
916.52
916.522
916.523
916.525
916.526
916.527
916.528
916.528
916.529
916.529
916.528
916.528
916.527
916.526
916.524
916.522
916.52
916.518
916.516
916.514
916.511
916.509
916.506
916.504
916.501
916.498
916.496
916.493
916.49
916.487
916.484
916.481
916.477
916.473
916.469
916.465
916.46
916.455
916.45
916.444
916.439
916.434
916.429
916.424
916.42
916.417
916.414
916.412
916.411
916.411
916.412
916.414
916.417
916.422
916.427
916.433
916.439
916.445
916.451
916.458
916.464
916.469
916.475
916.48
916.486
916.492
916.497
916.502
916.505
916.504
916.498
916.485
916.463
916.431
916.388
916.335
916.276
916.213
916.151
916.091
916.034
915.962
915.823
915.479
914.597
912.251
905.074
877.616
683.314
528.005
427.939
367.886
333.739
314.932
304.743
299.266
296.334
294.767
293.929
293.482
293.244
293.117
293.049
293.012
292.993
292.983
292.977
292.974
292.973
292.972
292.972
292.972
292.972
292.972
292.972
292.972
292.972
292.972
292.972
292.972
292.972
292.972
292.972
292.972
292.972
292.972
292.972
292.972
292.972
292.972
292.972
292.972
292.972
292.972
292.973
292.973
292.973
292.973
292.973
292.973
292.973
292.973
292.973
292.973
292.973
292.973
292.973
292.973
292.973
292.973
292.973
292.973
292.973
292.974
292.974
292.974
292.974
292.974
292.974
292.974
292.974
292.974
292.974
292.974
292.974
292.974
292.974
292.974
292.974
292.974
292.974
292.974
292.974
292.975
292.975
292.975
292.975
292.975
292.975
292.975
292.975
292.975
292.975
292.975
292.975
292.975
292.975
292.975
292.975
292.975
292.975
292.975
292.976
292.976
292.976
292.976
292.976
292.976
292.976
292.976
292.976
292.976
292.976
292.976
292.976
292.976
292.976
292.976
292.976
292.976
292.976
292.977
292.977
292.977
292.977
292.977
292.977
292.977
292.977
292.977
292.977
292.977
292.977
292.977
292.977
292.977
292.977
292.977
292.977
292.977
292.977
292.978
292.978
292.978
292.978
292.978
292.978
292.978
292.978
292.978
292.978
292.978
292.978
292.978
292.978
292.978
292.978
292.978
292.978
292.979
292.979
292.979
292.979
292.979
292.979
292.979
292.979
292.979
292.979
292.979
292.979
292.979
292.979
292.979
292.979
292.979
292.979
292.979
292.979
292.98
292.98
292.98
292.98
292.98
292.98
292.98
292.98
292.98
292.98
292.98
292.98
292.98
292.98
292.98
292.98
292.98
292.98
292.98
292.981
292.981
292.981
292.981
292.981
292.981
292.981
292.981
292.981
292.981
292.981
292.981
292.981
292.981
292.981
292.981
292.981
292.981
292.981
292.982
292.982
292.982
292.982
292.982
292.982
292.982
292.982
292.982
292.982
292.982
292.982
292.982
292.982
292.982
292.982
292.982
292.982
292.982
292.983
292.983
292.983
292.983
292.983
292.983
292.983
292.983
292.983
292.983
292.983
292.983
292.983
292.983
292.983
292.983
292.983
292.983
292.983
292.984
292.984
292.984
292.984
292.984
292.984
292.984
292.984
292.984
292.984
292.984
292.984
292.984
292.984
292.984
292.984
292.984
292.984
292.984
292.984
292.985
292.985
292.985
292.985
292.985
292.985
292.985
292.985
292.985
292.985
292.985
292.985
292.985
292.985
292.985
292.985
292.985
292.985
292.985
292.986
292.986
292.986
292.986
292.986
292.986
292.986
292.986
292.986
292.986
292.986
292.986
292.986
292.986
292.986
292.986
292.986
292.986
292.986
292.987
292.987
292.987
292.987
292.987
292.987
292.987
292.987
292.987
292.987
292.987
292.987
292.987
292.987
292.987
292.987
292.987
292.987
292.987
292.988
292.988
292.988
292.988
292.988
292.988
292.988
292.988
292.988
292.988
292.988
292.988
292.988
292.988
292.988
292.988
292.988
292.988
292.988
292.989
292.989
292.989
292.989
292.989
292.989
292.989
292.989
292.989
)
;

boundaryField
{
    fixedWall
    {
        type            fixedValue;
        value           uniform 293;
    }
    outlet
    {
        type            inletOutlet;
        inletValue      uniform 293;
        value           uniform 292.989;
    }
    defaultFaces
    {
        type            empty;
    }
}


// ************************************************************************* //
