/*--------------------------------*- C++ -*----------------------------------*\
| =========                 |                                                 |
| \\      /  F ield         | OpenFOAM: The Open Source CFD Toolbox           |
|  \\    /   O peration     | Version:  2406                                  |
|   \\  /    A nd           | Website:  www.openfoam.com                      |
|    \\/     M anipulation  |                                                 |
\*---------------------------------------------------------------------------*/
FoamFile
{
    version     2.0;
    format      ascii;
    arch        "LSB;label=32;scalar=64";
    class       volVectorField;
    location    "4";
    object      U;
}
// * * * * * * * * * * * * * * * * * * * * * * * * * * * * * * * * * * * * * //

dimensions      [0 1 -1 0 0 0 0];

internalField   nonuniform List<vector> 
1000
(
(-4.44002e-06 0 0)
(-2.06003e-05 0 0)
(-5.03047e-05 0 0)
(-8.86012e-05 0 0)
(-0.000132995 0 0)
(-0.00018204 0 0)
(-0.000234728 0 0)
(-0.000290269 0 0)
(-0.000348035 0 0)
(-0.000407522 0 0)
(-0.00046832 0 0)
(-0.000530093 0 0)
(-0.000592556 0 0)
(-0.00065547 0 0)
(-0.000718628 0 0)
(-0.000781851 0 0)
(-0.000844985 0 0)
(-0.000907893 0 0)
(-0.000970454 0 0)
(-0.00103256 0 0)
(-0.00109412 0 0)
(-0.00115505 0 0)
(-0.00121527 0 0)
(-0.00127471 0 0)
(-0.00133332 0 0)
(-0.00139105 0 0)
(-0.00144783 0 0)
(-0.00150364 0 0)
(-0.00155844 0 0)
(-0.00161219 0 0)
(-0.00166487 0 0)
(-0.00171645 0 0)
(-0.0017669 0 0)
(-0.00181622 0 0)
(-0.00186439 0 0)
(-0.0019114 0 0)
(-0.00195724 0 0)
(-0.0020019 0 0)
(-0.00204539 0 0)
(-0.00208769 0 0)
(-0.00212882 0 0)
(-0.00216877 0 0)
(-0.00220755 0 0)
(-0.00224516 0 0)
(-0.00228162 0 0)
(-0.00231694 0 0)
(-0.00235112 0 0)
(-0.00238418 0 0)
(-0.00241614 0 0)
(-0.002447 0 0)
(-0.00247679 0 0)
(-0.00250553 0 0)
(-0.00253322 0 0)
(-0.0025599 0 0)
(-0.00258557 0 0)
(-0.00261027 0 0)
(-0.00263401 0 0)
(-0.00265681 0 0)
(-0.0026787 0 0)
(-0.00269969 0 0)
(-0.00271982 0 0)
(-0.0027391 0 0)
(-0.00275755 0 0)
(-0.00277521 0 0)
(-0.00279209 0 0)
(-0.00280821 0 0)
(-0.00282361 0 0)
(-0.0028383 0 0)
(-0.0028523 0 0)
(-0.00286565 0 0)
(-0.00287836 0 0)
(-0.00289045 0 0)
(-0.00290195 0 0)
(-0.00291289 0 0)
(-0.00292327 0 0)
(-0.00293313 0 0)
(-0.00294248 0 0)
(-0.00295135 0 0)
(-0.00295975 0 0)
(-0.00296771 0 0)
(-0.00297524 0 0)
(-0.00298237 0 0)
(-0.00298915 0 0)
(-0.00299554 0 0)
(-0.00300151 0 0)
(-0.00300716 0 0)
(-0.00301248 0 0)
(-0.00301752 0 0)
(-0.0030223 0 0)
(-0.00302678 0 0)
(-0.00303102 0 0)
(-0.00303501 0 0)
(-0.00303877 0 0)
(-0.00304231 0 0)
(-0.00304564 0 0)
(-0.00304878 0 0)
(-0.00305173 0 0)
(-0.00305451 0 0)
(-0.00305712 0 0)
(-0.00305962 0 0)
(-0.00306189 0 0)
(-0.00306408 0 0)
(-0.00306613 0 0)
(-0.00306808 0 0)
(-0.00306995 0 0)
(-0.00307162 0 0)
(-0.00307326 0 0)
(-0.0030748 0 0)
(-0.00307625 0 0)
(-0.00307763 0 0)
(-0.00307893 0 0)
(-0.00308017 0 0)
(-0.00308134 0 0)
(-0.00308246 0 0)
(-0.00308352 0 0)
(-0.00308453 0 0)
(-0.00308549 0 0)
(-0.00308642 0 0)
(-0.0030873 0 0)
(-0.00308815 0 0)
(-0.00308897 0 0)
(-0.00308976 0 0)
(-0.00309052 0 0)
(-0.00309125 0 0)
(-0.00309196 0 0)
(-0.00309265 0 0)
(-0.00309332 0 0)
(-0.00309398 0 0)
(-0.00309461 0 0)
(-0.00309524 0 0)
(-0.00309585 0 0)
(-0.00309645 0 0)
(-0.00309703 0 0)
(-0.00309761 0 0)
(-0.00309818 0 0)
(-0.00309875 0 0)
(-0.0030993 0 0)
(-0.00309985 0 0)
(-0.0031004 0 0)
(-0.00310094 0 0)
(-0.00310148 0 0)
(-0.00310201 0 0)
(-0.00310254 0 0)
(-0.00310307 0 0)
(-0.00310359 0 0)
(-0.00310411 0 0)
(-0.00310464 0 0)
(-0.00310516 0 0)
(-0.00310567 0 0)
(-0.00310619 0 0)
(-0.00310671 0 0)
(-0.00310723 0 0)
(-0.00310774 0 0)
(-0.00310826 0 0)
(-0.00310878 0 0)
(-0.00310929 0 0)
(-0.00310981 0 0)
(-0.00311033 0 0)
(-0.00311084 0 0)
(-0.00311136 0 0)
(-0.00311188 0 0)
(-0.0031124 0 0)
(-0.00311292 0 0)
(-0.00311344 0 0)
(-0.00311396 0 0)
(-0.00311448 0 0)
(-0.003115 0 0)
(-0.00311552 0 0)
(-0.00311604 0 0)
(-0.00311657 0 0)
(-0.00311709 0 0)
(-0.00311761 0 0)
(-0.00311814 0 0)
(-0.00311866 0 0)
(-0.00311919 0 0)
(-0.00311971 0 0)
(-0.00312024 0 0)
(-0.00312077 0 0)
(-0.0031213 0 0)
(-0.00312183 0 0)
(-0.00312235 0 0)
(-0.00312288 0 0)
(-0.00312341 0 0)
(-0.00312394 0 0)
(-0.00312447 0 0)
(-0.00312501 0 0)
(-0.00312554 0 0)
(-0.00312607 0 0)
(-0.0031266 0 0)
(-0.00312713 0 0)
(-0.00312767 0 0)
(-0.0031282 0 0)
(-0.00312873 0 0)
(-0.00312927 0 0)
(-0.0031298 0 0)
(-0.00313034 0 0)
(-0.00313087 0 0)
(-0.00313141 0 0)
(-0.00313194 0 0)
(-0.00313248 0 0)
(-0.00313301 0 0)
(-0.00313355 0 0)
(-0.00313409 0 0)
(-0.00313462 0 0)
(-0.00313516 0 0)
(-0.0031357 0 0)
(-0.00313623 0 0)
(-0.00313677 0 0)
(-0.00313731 0 0)
(-0.00313785 0 0)
(-0.00313838 0 0)
(-0.00313892 0 0)
(-0.00313946 0 0)
(-0.00314 0 0)
(-0.00314054 0 0)
(-0.00314108 0 0)
(-0.00314162 0 0)
(-0.00314216 0 0)
(-0.0031427 0 0)
(-0.00314324 0 0)
(-0.00314378 0 0)
(-0.00314432 0 0)
(-0.00314486 0 0)
(-0.0031454 0 0)
(-0.00314594 0 0)
(-0.00314648 0 0)
(-0.00314702 0 0)
(-0.00314757 0 0)
(-0.00314811 0 0)
(-0.00314865 0 0)
(-0.00314919 0 0)
(-0.00314974 0 0)
(-0.00315028 0 0)
(-0.00315082 0 0)
(-0.00315137 0 0)
(-0.00315191 0 0)
(-0.00315246 0 0)
(-0.003153 0 0)
(-0.00315355 0 0)
(-0.00315409 0 0)
(-0.00315464 0 0)
(-0.00315518 0 0)
(-0.00315573 0 0)
(-0.00315628 0 0)
(-0.00315682 0 0)
(-0.00315737 0 0)
(-0.00315792 0 0)
(-0.00315847 0 0)
(-0.00315902 0 0)
(-0.00315956 0 0)
(-0.00316011 0 0)
(-0.00316066 0 0)
(-0.00316121 0 0)
(-0.00316176 0 0)
(-0.00316231 0 0)
(-0.00316286 0 0)
(-0.00316341 0 0)
(-0.00316396 0 0)
(-0.00316452 0 0)
(-0.00316507 0 0)
(-0.00316562 0 0)
(-0.00316617 0 0)
(-0.00316672 0 0)
(-0.00316728 0 0)
(-0.00316783 0 0)
(-0.00316839 0 0)
(-0.00316893 0 0)
(-0.0031695 0 0)
(-0.00317005 0 0)
(-0.00317061 0 0)
(-0.00317117 0 0)
(-0.00317171 0 0)
(-0.00317228 0 0)
(-0.00317283 0 0)
(-0.00317339 0 0)
(-0.00317395 0 0)
(-0.00317451 0 0)
(-0.00317507 0 0)
(-0.00317563 0 0)
(-0.00317619 0 0)
(-0.00317675 0 0)
(-0.00317731 0 0)
(-0.00317787 0 0)
(-0.00317844 0 0)
(-0.003179 0 0)
(-0.00317957 0 0)
(-0.00318013 0 0)
(-0.0031807 0 0)
(-0.00318126 0 0)
(-0.00318183 0 0)
(-0.0031824 0 0)
(-0.00318297 0 0)
(-0.00318353 0 0)
(-0.0031841 0 0)
(-0.00318467 0 0)
(-0.00318524 0 0)
(-0.00318582 0 0)
(-0.00318639 0 0)
(-0.00318696 0 0)
(-0.00318754 0 0)
(-0.00318811 0 0)
(-0.00318869 0 0)
(-0.00318926 0 0)
(-0.00318984 0 0)
(-0.00319042 0 0)
(-0.003191 0 0)
(-0.00319158 0 0)
(-0.00319216 0 0)
(-0.00319274 0 0)
(-0.00319332 0 0)
(-0.0031939 0 0)
(-0.00319448 0 0)
(-0.00319506 0 0)
(-0.00319565 0 0)
(-0.00319623 0 0)
(-0.00319682 0 0)
(-0.0031974 0 0)
(-0.00319799 0 0)
(-0.00319858 0 0)
(-0.00319916 0 0)
(-0.00319975 0 0)
(-0.00320034 0 0)
(-0.00320093 0 0)
(-0.00320152 0 0)
(-0.00320211 0 0)
(-0.0032027 0 0)
(-0.00320329 0 0)
(-0.00320389 0 0)
(-0.00320448 0 0)
(-0.00320507 0 0)
(-0.00320566 0 0)
(-0.00320626 0 0)
(-0.00320685 0 0)
(-0.00320745 0 0)
(-0.00320804 0 0)
(-0.00320864 0 0)
(-0.00320924 0 0)
(-0.00320983 0 0)
(-0.00321043 0 0)
(-0.00321103 0 0)
(-0.00321163 0 0)
(-0.00321223 0 0)
(-0.00321283 0 0)
(-0.00321343 0 0)
(-0.00321403 0 0)
(-0.00321463 0 0)
(-0.00321523 0 0)
(-0.00321583 0 0)
(-0.00321644 0 0)
(-0.00321703 0 0)
(-0.00321764 0 0)
(-0.00321826 0 0)
(-0.00321885 0 0)
(-0.00321946 0 0)
(-0.00322007 0 0)
(-0.00322067 0 0)
(-0.0032213 0 0)
(-0.00322189 0 0)
(-0.0032225 0 0)
(-0.00322312 0 0)
(-0.00322372 0 0)
(-0.00322434 0 0)
(-0.00322495 0 0)
(-0.00322556 0 0)
(-0.00322618 0 0)
(-0.00322679 0 0)
(-0.00322741 0 0)
(-0.00322803 0 0)
(-0.00322865 0 0)
(-0.00322926 0 0)
(-0.00322988 0 0)
(-0.00323051 0 0)
(-0.00323113 0 0)
(-0.00323175 0 0)
(-0.00323238 0 0)
(-0.003233 0 0)
(-0.00323363 0 0)
(-0.00323425 0 0)
(-0.00323488 0 0)
(-0.00323551 0 0)
(-0.00323614 0 0)
(-0.00323677 0 0)
(-0.00323741 0 0)
(-0.00323804 0 0)
(-0.00323868 0 0)
(-0.00323931 0 0)
(-0.00323995 0 0)
(-0.00324059 0 0)
(-0.00324123 0 0)
(-0.00324187 0 0)
(-0.00324251 0 0)
(-0.00324315 0 0)
(-0.0032438 0 0)
(-0.00324444 0 0)
(-0.00324509 0 0)
(-0.00324574 0 0)
(-0.00324639 0 0)
(-0.00324704 0 0)
(-0.00324769 0 0)
(-0.00324834 0 0)
(-0.00324899 0 0)
(-0.00324965 0 0)
(-0.00325031 0 0)
(-0.00325096 0 0)
(-0.00325162 0 0)
(-0.00325228 0 0)
(-0.00325294 0 0)
(-0.0032536 0 0)
(-0.00325427 0 0)
(-0.00325493 0 0)
(-0.00325559 0 0)
(-0.00325626 0 0)
(-0.00325693 0 0)
(-0.00325759 0 0)
(-0.00325826 0 0)
(-0.00325892 0 0)
(-0.00325959 0 0)
(-0.00326026 0 0)
(-0.00326092 0 0)
(-0.00326159 0 0)
(-0.00326226 0 0)
(-0.00326292 0 0)
(-0.00326359 0 0)
(-0.00326425 0 0)
(-0.00326492 0 0)
(-0.00326558 0 0)
(-0.00326624 0 0)
(-0.0032669 0 0)
(-0.00326756 0 0)
(-0.00326822 0 0)
(-0.00326887 0 0)
(-0.00326953 0 0)
(-0.00327018 0 0)
(-0.00327084 0 0)
(-0.00327149 0 0)
(-0.00327214 0 0)
(-0.00327278 0 0)
(-0.00327343 0 0)
(-0.00327408 0 0)
(-0.00327472 0 0)
(-0.00327536 0 0)
(-0.003276 0 0)
(-0.00327665 0 0)
(-0.00327729 0 0)
(-0.00327793 0 0)
(-0.00327857 0 0)
(-0.00327921 0 0)
(-0.00327985 0 0)
(-0.00328049 0 0)
(-0.00328113 0 0)
(-0.00328178 0 0)
(-0.00328242 0 0)
(-0.00328307 0 0)
(-0.00328371 0 0)
(-0.00328436 0 0)
(-0.00328501 0 0)
(-0.00328567 0 0)
(-0.00328632 0 0)
(-0.00328698 0 0)
(-0.00328765 0 0)
(-0.00328831 0 0)
(-0.00328898 0 0)
(-0.00328965 0 0)
(-0.00329032 0 0)
(-0.003291 0 0)
(-0.00329168 0 0)
(-0.00329237 0 0)
(-0.00329306 0 0)
(-0.00329375 0 0)
(-0.00329444 0 0)
(-0.00329514 0 0)
(-0.00329585 0 0)
(-0.00329655 0 0)
(-0.00329726 0 0)
(-0.00329797 0 0)
(-0.00329868 0 0)
(-0.00329941 0 0)
(-0.00330011 0 0)
(-0.00330085 0 0)
(-0.00330155 0 0)
(-0.00330232 0 0)
(-0.00330301 0 0)
(-0.00330374 0 0)
(-0.00330449 0 0)
(-0.00330518 0 0)
(-0.00330594 0 0)
(-0.00330665 0 0)
(-0.00330739 0 0)
(-0.0033081 0 0)
(-0.00330883 0 0)
(-0.00330955 0 0)
(-0.00331027 0 0)
(-0.00331099 0 0)
(-0.00331171 0 0)
(-0.00331242 0 0)
(-0.00331313 0 0)
(-0.00331384 0 0)
(-0.00331454 0 0)
(-0.00331524 0 0)
(-0.00331594 0 0)
(-0.00331664 0 0)
(-0.00331733 0 0)
(-0.00331802 0 0)
(-0.00331871 0 0)
(-0.0033194 0 0)
(-0.00332009 0 0)
(-0.00332078 0 0)
(-0.00332147 0 0)
(-0.00332216 0 0)
(-0.00332285 0 0)
(-0.00332355 0 0)
(-0.00332424 0 0)
(-0.00332494 0 0)
(-0.00332564 0 0)
(-0.00332635 0 0)
(-0.00332705 0 0)
(-0.00332777 0 0)
(-0.00332848 0 0)
(-0.0033292 0 0)
(-0.00332993 0 0)
(-0.00333065 0 0)
(-0.00333138 0 0)
(-0.00333212 0 0)
(-0.00333285 0 0)
(-0.00333359 0 0)
(-0.00333432 0 0)
(-0.00333506 0 0)
(-0.0033358 0 0)
(-0.00333653 0 0)
(-0.00333726 0 0)
(-0.00333799 0 0)
(-0.00333872 0 0)
(-0.00333944 0 0)
(-0.00334016 0 0)
(-0.00334087 0 0)
(-0.00334158 0 0)
(-0.00334228 0 0)
(-0.00334298 0 0)
(-0.00334368 0 0)
(-0.00334437 0 0)
(-0.00334506 0 0)
(-0.00334575 0 0)
(-0.00334643 0 0)
(-0.00334712 0 0)
(-0.00334781 0 0)
(-0.00334851 0 0)
(-0.0033492 0 0)
(-0.00334991 0 0)
(-0.00335062 0 0)
(-0.00335134 0 0)
(-0.00335206 0 0)
(-0.0033528 0 0)
(-0.00335354 0 0)
(-0.00335429 0 0)
(-0.00335506 0 0)
(-0.00335582 0 0)
(-0.00335664 0 0)
(-0.00335741 0 0)
(-0.00335817 0 0)
(-0.00335899 0 0)
(-0.00335975 0 0)
(-0.00336059 0 0)
(-0.00336137 0 0)
(-0.00336213 0 0)
(-0.00336293 0 0)
(-0.00336369 0 0)
(-0.00336446 0 0)
(-0.00336521 0 0)
(-0.00336595 0 0)
(-0.00336669 0 0)
(-0.00336741 0 0)
(-0.00336813 0 0)
(-0.00336884 0 0)
(-0.00336955 0 0)
(-0.00337026 0 0)
(-0.00337096 0 0)
(-0.00337167 0 0)
(-0.00337239 0 0)
(-0.00337311 0 0)
(-0.00337383 0 0)
(-0.00337456 0 0)
(-0.0033753 0 0)
(-0.00337603 0 0)
(-0.00337677 0 0)
(-0.0033775 0 0)
(-0.00337823 0 0)
(-0.00337895 0 0)
(-0.00337965 0 0)
(-0.00338033 0 0)
(-0.00338098 0 0)
(-0.00338161 0 0)
(-0.0033822 0 0)
(-0.00338276 0 0)
(-0.00338328 0 0)
(-0.00338375 0 0)
(-0.00338418 0 0)
(-0.00338457 0 0)
(-0.00338492 0 0)
(-0.00338524 0 0)
(-0.00338552 0 0)
(-0.00338578 0 0)
(-0.00338603 0 0)
(-0.00338628 0 0)
(-0.00338653 0 0)
(-0.0033868 0 0)
(-0.00338709 0 0)
(-0.00338741 0 0)
(-0.00338774 0 0)
(-0.00338807 0 0)
(-0.00338838 0 0)
(-0.00338864 0 0)
(-0.00338883 0 0)
(-0.00338892 0 0)
(-0.0033889 0 0)
(-0.00338878 0 0)
(-0.00338856 0 0)
(-0.00338833 0 0)
(-0.00338806 0 0)
(-0.00338805 0 0)
(-0.00338778 0 0)
(-0.00338842 0 0)
(-0.00338823 0 0)
(-0.00338858 0 0)
(-0.00338858 0 0)
(-0.00338705 0 0)
(-0.00338467 0 0)
(-0.00337961 0 0)
(-0.00337126 0 0)
(-0.00335961 0 0)
(-0.00334058 0 0)
(-0.00331321 0 0)
(-0.00326402 0 0)
(-0.00318761 0 0)
(-0.00315487 0 0)
(-0.00285665 0 0)
(-0.00262423 0 0)
(-0.000254983 0 0)
(0.0174428 0 0)
(0.0500074 0 0)
(0.0776474 0 0)
(0.0937595 0 0)
(0.101942 0 0)
(0.105881 0 0)
(0.107677 0 0)
(0.108547 0 0)
(0.108955 0 0)
(0.109171 0 0)
(0.109297 0 0)
(0.109341 0 0)
(0.109358 0 0)
(0.109416 0 0)
(0.109377 0 0)
(0.109411 0 0)
(0.109428 0 0)
(0.109403 0 0)
(0.109358 0 0)
(0.109412 0 0)
(0.109456 0 0)
(0.109338 0 0)
(0.109427 0 0)
(0.10942 0 0)
(0.109355 0 0)
(0.109429 0 0)
(0.109382 0 0)
(0.109409 0 0)
(0.109403 0 0)
(0.10934 0 0)
(0.109451 0 0)
(0.109411 0 0)
(0.109336 0 0)
(0.109398 0 0)
(0.109445 0 0)
(0.10934 0 0)
(0.109386 0 0)
(0.109428 0 0)
(0.109353 0 0)
(0.109398 0 0)
(0.109376 0 0)
(0.109396 0 0)
(0.109406 0 0)
(0.109343 0 0)
(0.109393 0 0)
(0.109388 0 0)
(0.109375 0 0)
(0.109394 0 0)
(0.109386 0 0)
(0.109338 0 0)
(0.10938 0 0)
(0.109417 0 0)
(0.109333 0 0)
(0.109397 0 0)
(0.109404 0 0)
(0.109314 0 0)
(0.10938 0 0)
(0.10943 0 0)
(0.109314 0 0)
(0.10937 0 0)
(0.109417 0 0)
(0.109312 0 0)
(0.109389 0 0)
(0.109391 0 0)
(0.109338 0 0)
(0.109365 0 0)
(0.109378 0 0)
(0.109345 0 0)
(0.109378 0 0)
(0.109372 0 0)
(0.109366 0 0)
(0.109328 0 0)
(0.109347 0 0)
(0.109397 0 0)
(0.109324 0 0)
(0.109391 0 0)
(0.109366 0 0)
(0.109302 0 0)
(0.109393 0 0)
(0.109387 0 0)
(0.109293 0 0)
(0.109361 0 0)
(0.109408 0 0)
(0.109297 0 0)
(0.10935 0 0)
(0.109376 0 0)
(0.109361 0 0)
(0.109316 0 0)
(0.109324 0 0)
(0.109418 0 0)
(0.109296 0 0)
(0.10935 0 0)
(0.109356 0 0)
(0.109365 0 0)
(0.109315 0 0)
(0.109337 0 0)
(0.109357 0 0)
(0.109324 0 0)
(0.109372 0 0)
(0.109351 0 0)
(0.109291 0 0)
(0.109332 0 0)
(0.109403 0 0)
(0.109295 0 0)
(0.109335 0 0)
(0.109342 0 0)
(0.10933 0 0)
(0.109368 0 0)
(0.109309 0 0)
(0.109308 0 0)
(0.109387 0 0)
(0.109304 0 0)
(0.109336 0 0)
(0.109332 0 0)
(0.109308 0 0)
(0.109378 0 0)
(0.1093 0 0)
(0.109334 0 0)
(0.109331 0 0)
(0.109322 0 0)
(0.109349 0 0)
(0.109282 0 0)
(0.109348 0 0)
(0.109368 0 0)
(0.109266 0 0)
(0.109338 0 0)
(0.109334 0 0)
(0.109324 0 0)
(0.109331 0 0)
(0.109285 0 0)
(0.109353 0 0)
(0.109342 0 0)
(0.109273 0 0)
(0.109336 0 0)
(0.109359 0 0)
(0.109257 0 0)
(0.109342 0 0)
(0.109359 0 0)
(0.109262 0 0)
(0.109328 0 0)
(0.109324 0 0)
(0.109309 0 0)
(0.109333 0 0)
(0.109323 0 0)
(0.109278 0 0)
(0.1093 0 0)
(0.109361 0 0)
(0.109282 0 0)
(0.109316 0 0)
(0.109325 0 0)
(0.109298 0 0)
(0.109293 0 0)
(0.109337 0 0)
(0.109332 0 0)
(0.109246 0 0)
(0.109324 0 0)
(0.109332 0 0)
(0.109311 0 0)
(0.109266 0 0)
(0.109321 0 0)
(0.109336 0 0)
(0.10926 0 0)
(0.109335 0 0)
(0.109318 0 0)
(0.109262 0 0)
(0.109316 0 0)
(0.109353 0 0)
(0.10923 0 0)
(0.109325 0 0)
(0.109323 0 0)
(0.109298 0 0)
(0.109275 0 0)
(0.10928 0 0)
(0.109355 0 0)
(0.109276 0 0)
(0.109288 0 0)
(0.109298 0 0)
(0.109316 0 0)
(0.109281 0 0)
(0.109297 0 0)
(0.109302 0 0)
(0.109271 0 0)
(0.109339 0 0)
(0.109263 0 0)
(0.109315 0 0)
(0.109283 0 0)
(0.109283 0 0)
(0.109311 0 0)
(0.109291 0 0)
(0.109297 0 0)
(0.109262 0 0)
(0.109328 0 0)
(0.109276 0 0)
(0.109283 0 0)
(0.109289 0 0)
(0.109303 0 0)
(0.109279 0 0)
(0.109281 0 0)
(0.109335 0 0)
(0.109237 0 0)
(0.109297 0 0)
(0.109291 0 0)
(0.109297 0 0)
(0.109283 0 0)
(0.109284 0 0)
(0.109298 0 0)
(0.109259 0 0)
(0.109287 0 0)
(0.109308 0 0)
(0.109289 0 0)
(0.109256 0 0)
(0.109279 0 0)
(0.109329 0 0)
(0.109241 0 0)
(0.10927 0 0)
(0.109338 0 0)
(0.109232 0 0)
(0.109285 0 0)
(0.109323 0 0)
(0.109258 0 0)
(0.109265 0 0)
(0.109287 0 0)
(0.109314 0 0)
(0.109233 0 0)
(0.109309 0 0)
(0.109271 0 0)
(0.109256 0 0)
(0.109324 0 0)
(0.109243 0 0)
(0.109287 0 0)
(0.109281 0 0)
(0.109264 0 0)
(0.109298 0 0)
(0.109245 0 0)
(0.109299 0 0)
(0.109299 0 0)
(0.109234 0 0)
(0.109282 0 0)
(0.109281 0 0)
(0.109283 0 0)
(0.109277 0 0)
(0.109279 0 0)
(0.109243 0 0)
(0.109274 0 0)
(0.109298 0 0)
(0.109262 0 0)
(0.10928 0 0)
(0.109249 0 0)
(0.109281 0 0)
(0.109282 0 0)
(0.109273 0 0)
(0.10926 0 0)
(0.109274 0 0)
(0.10927 0 0)
(0.109271 0 0)
(0.109263 0 0)
(0.109291 0 0)
(0.109245 0 0)
(0.109287 0 0)
(0.109272 0 0)
(0.109226 0 0)
(0.109311 0 0)
(0.109293 0 0)
(0.109215 0 0)
(0.109273 0 0)
(0.109326 0 0)
(0.109203 0 0)
(0.109283 0 0)
(0.109311 0 0)
(0.109215 0 0)
(0.109276 0 0)
(0.109273 0 0)
(0.109275 0 0)
(0.10927 0 0)
(0.109268 0 0)
(0.109234 0 0)
(0.109266 0 0)
(0.109293 0 0)
(0.10925 0 0)
(0.10928 0 0)
(0.109238 0 0)
(0.109266 0 0)
(0.109282 0 0)
(0.109267 0 0)
(0.10924 0 0)
(0.109284 0 0)
(0.10928 0 0)
(0.109219 0 0)
(0.109305 0 0)
(0.109247 0 0)
(0.10925 0 0)
(0.109291 0 0)
(0.109232 0 0)
(0.109259 0 0)
(0.109315 0 0)
(0.109213 0 0)
(0.109266 0 0)
(0.109272 0 0)
(0.109241 0 0)
(0.109304 0 0)
(0.10923 0 0)
(0.109266 0 0)
(0.109267 0 0)
(0.109238 0 0)
(0.1093 0 0)
(0.10923 0 0)
(0.109274 0 0)
(0.109256 0 0)
(0.109246 0 0)
(0.109288 0 0)
(0.109243 0 0)
(0.109257 0 0)
(0.109278 0 0)
(0.109265 0 0)
(0.109217 0 0)
(0.109268 0 0)
(0.109301 0 0)
(0.109213 0 0)
(0.109297 0 0)
(0.109237 0 0)
(0.10925 0 0)
(0.109295 0 0)
(0.109228 0 0)
(0.109258 0 0)
(0.109264 0 0)
(0.109264 0 0)
(0.109282 0 0)
(0.109221 0 0)
(0.109261 0 0)
(0.109264 0 0)
(0.109262 0 0)
(0.109283 0 0)
(0.109214 0 0)
(0.109274 0 0)
(0.109291 0 0)
(0.109214 0 0)
(0.109253 0 0)
(0.109278 0 0)
(0.10925 0 0)
(0.109263 0 0)
(0.10925 0 0)
(0.109267 0 0)
(0.109266 0 0)
(0.109224 0 0)
(0.109286 0 0)
(0.109232 0 0)
(0.10927 0 0)
(0.109273 0 0)
(0.109207 0 0)
(0.109311 0 0)
(0.10924 0 0)
(0.109253 0 0)
(0.109261 0 0)
(0.109227 0 0)
(0.109292 0 0)
(0.109278 0 0)
(0.109189 0 0)
(0.10927 0 0)
(0.109319 0 0)
(0.109186 0 0)
(0.109288 0 0)
(0.109268 0 0)
(0.109253 0 0)
)
;

boundaryField
{
    fixedWall
    {
        type            fixedValue;
        value           uniform (0 0 0);
    }
    outlet
    {
        type            pressureInletOutletVelocity;
        value           uniform (0.109253 0 0);
    }
    defaultFaces
    {
        type            empty;
    }
}


// ************************************************************************* //
