/*--------------------------------*- C++ -*----------------------------------*\
| =========                 |                                                 |
| \\      /  F ield         | OpenFOAM: The Open Source CFD Toolbox           |
|  \\    /   O peration     | Version:  2406                                  |
|   \\  /    A nd           | Website:  www.openfoam.com                      |
|    \\/     M anipulation  |                                                 |
\*---------------------------------------------------------------------------*/
FoamFile
{
    version     2.0;
    format      ascii;
    arch        "LSB;label=32;scalar=64";
    class       surfaceScalarField;
    location    "7.7";
    object      phi;
}
// * * * * * * * * * * * * * * * * * * * * * * * * * * * * * * * * * * * * * //

dimensions      [1 0 -1 0 0 0 0];

oriented        oriented;

internalField   nonuniform List<scalar> 
999
(
-2.74376e-08
-8.91452e-08
-1.70834e-07
-2.64474e-07
-3.65278e-07
-4.70251e-07
-5.77466e-07
-6.85639e-07
-7.93918e-07
-9.01702e-07
-1.00859e-06
-1.1143e-06
-1.21864e-06
-1.32148e-06
-1.42272e-06
-1.52232e-06
-1.62022e-06
-1.71643e-06
-1.81094e-06
-1.90374e-06
-1.99485e-06
-2.08429e-06
-2.17207e-06
-2.25821e-06
-2.34273e-06
-2.42567e-06
-2.50704e-06
-2.58686e-06
-2.66516e-06
-2.74196e-06
-2.8173e-06
-2.89118e-06
-2.96363e-06
-3.03468e-06
-3.10434e-06
-3.17264e-06
-3.2396e-06
-3.30523e-06
-3.36957e-06
-3.43262e-06
-3.4944e-06
-3.55494e-06
-3.61425e-06
-3.67236e-06
-3.72926e-06
-3.78499e-06
-3.83956e-06
-3.89299e-06
-3.94529e-06
-3.99648e-06
-4.04657e-06
-4.09558e-06
-4.14352e-06
-4.19042e-06
-4.23627e-06
-4.28111e-06
-4.32494e-06
-4.36777e-06
-4.40962e-06
-4.45051e-06
-4.49045e-06
-4.52945e-06
-4.56753e-06
-4.6047e-06
-4.64097e-06
-4.67636e-06
-4.71088e-06
-4.74454e-06
-4.77736e-06
-4.80936e-06
-4.84053e-06
-4.8709e-06
-4.90049e-06
-4.92929e-06
-4.95734e-06
-4.98463e-06
-5.01118e-06
-5.03701e-06
-5.06213e-06
-5.08655e-06
-5.11028e-06
-5.13334e-06
-5.15574e-06
-5.17749e-06
-5.1986e-06
-5.2191e-06
-5.23898e-06
-5.25826e-06
-5.27696e-06
-5.29508e-06
-5.31264e-06
-5.32965e-06
-5.34613e-06
-5.36208e-06
-5.37751e-06
-5.39245e-06
-5.40689e-06
-5.42085e-06
-5.43435e-06
-5.44739e-06
-5.45999e-06
-5.47215e-06
-5.4839e-06
-5.49523e-06
-5.50616e-06
-5.5167e-06
-5.52686e-06
-5.53665e-06
-5.54608e-06
-5.55516e-06
-5.5639e-06
-5.57232e-06
-5.58041e-06
-5.58819e-06
-5.59567e-06
-5.60286e-06
-5.60977e-06
-5.6164e-06
-5.62277e-06
-5.62888e-06
-5.63474e-06
-5.64036e-06
-5.64574e-06
-5.6509e-06
-5.65585e-06
-5.66058e-06
-5.66512e-06
-5.66946e-06
-5.67362e-06
-5.6776e-06
-5.68138e-06
-5.68497e-06
-5.68841e-06
-5.6917e-06
-5.69485e-06
-5.69785e-06
-5.70072e-06
-5.70345e-06
-5.70605e-06
-5.70853e-06
-5.7109e-06
-5.71315e-06
-5.71529e-06
-5.71733e-06
-5.71926e-06
-5.72111e-06
-5.72286e-06
-5.72452e-06
-5.7261e-06
-5.7276e-06
-5.72902e-06
-5.73037e-06
-5.73164e-06
-5.73286e-06
-5.734e-06
-5.73509e-06
-5.73612e-06
-5.7371e-06
-5.73802e-06
-5.73889e-06
-5.73972e-06
-5.7405e-06
-5.74124e-06
-5.74193e-06
-5.74259e-06
-5.74321e-06
-5.74379e-06
-5.74435e-06
-5.74487e-06
-5.74536e-06
-5.74582e-06
-5.74626e-06
-5.74667e-06
-5.74705e-06
-5.74742e-06
-5.74776e-06
-5.74808e-06
-5.74839e-06
-5.74867e-06
-5.74894e-06
-5.74919e-06
-5.74943e-06
-5.74965e-06
-5.74986e-06
-5.75006e-06
-5.75024e-06
-5.75041e-06
-5.75057e-06
-5.75073e-06
-5.75087e-06
-5.751e-06
-5.75113e-06
-5.75124e-06
-5.75135e-06
-5.75145e-06
-5.75155e-06
-5.75164e-06
-5.75172e-06
-5.7518e-06
-5.75188e-06
-5.75195e-06
-5.75201e-06
-5.75207e-06
-5.75213e-06
-5.75218e-06
-5.75223e-06
-5.75228e-06
-5.75232e-06
-5.75236e-06
-5.7524e-06
-5.75243e-06
-5.75246e-06
-5.75249e-06
-5.75252e-06
-5.75255e-06
-5.75257e-06
-5.7526e-06
-5.75262e-06
-5.75264e-06
-5.75265e-06
-5.75267e-06
-5.75268e-06
-5.7527e-06
-5.75271e-06
-5.75272e-06
-5.75274e-06
-5.75274e-06
-5.75275e-06
-5.75276e-06
-5.75277e-06
-5.75278e-06
-5.75278e-06
-5.75279e-06
-5.75279e-06
-5.7528e-06
-5.7528e-06
-5.7528e-06
-5.7528e-06
-5.7528e-06
-5.7528e-06
-5.75281e-06
-5.75281e-06
-5.75281e-06
-5.7528e-06
-5.7528e-06
-5.7528e-06
-5.7528e-06
-5.7528e-06
-5.75279e-06
-5.75279e-06
-5.75279e-06
-5.75278e-06
-5.75278e-06
-5.75277e-06
-5.75277e-06
-5.75276e-06
-5.75276e-06
-5.75275e-06
-5.75275e-06
-5.75274e-06
-5.75274e-06
-5.75273e-06
-5.75272e-06
-5.75271e-06
-5.75271e-06
-5.7527e-06
-5.75269e-06
-5.75268e-06
-5.75268e-06
-5.75267e-06
-5.75266e-06
-5.75265e-06
-5.75264e-06
-5.75263e-06
-5.75262e-06
-5.75261e-06
-5.7526e-06
-5.7526e-06
-5.75258e-06
-5.75257e-06
-5.75257e-06
-5.75255e-06
-5.75254e-06
-5.75253e-06
-5.75252e-06
-5.75251e-06
-5.7525e-06
-5.75249e-06
-5.75248e-06
-5.75247e-06
-5.75246e-06
-5.75245e-06
-5.75244e-06
-5.75243e-06
-5.75242e-06
-5.75241e-06
-5.7524e-06
-5.75239e-06
-5.75238e-06
-5.75237e-06
-5.75235e-06
-5.75234e-06
-5.75233e-06
-5.75232e-06
-5.75231e-06
-5.7523e-06
-5.75229e-06
-5.75228e-06
-5.75227e-06
-5.75226e-06
-5.75225e-06
-5.75224e-06
-5.75223e-06
-5.75222e-06
-5.75221e-06
-5.7522e-06
-5.75219e-06
-5.75218e-06
-5.75217e-06
-5.75216e-06
-5.75216e-06
-5.75215e-06
-5.75214e-06
-5.75213e-06
-5.75212e-06
-5.75211e-06
-5.7521e-06
-5.7521e-06
-5.75209e-06
-5.75208e-06
-5.75207e-06
-5.75207e-06
-5.75206e-06
-5.75205e-06
-5.75204e-06
-5.75204e-06
-5.75203e-06
-5.75203e-06
-5.75202e-06
-5.75201e-06
-5.75201e-06
-5.752e-06
-5.752e-06
-5.75199e-06
-5.75199e-06
-5.75198e-06
-5.75198e-06
-5.75197e-06
-5.75197e-06
-5.75197e-06
-5.75196e-06
-5.75196e-06
-5.75196e-06
-5.75196e-06
-5.75196e-06
-5.75196e-06
-5.75195e-06
-5.75195e-06
-5.75195e-06
-5.75195e-06
-5.75195e-06
-5.75195e-06
-5.75195e-06
-5.75195e-06
-5.75195e-06
-5.75195e-06
-5.75196e-06
-5.75196e-06
-5.75196e-06
-5.75196e-06
-5.75196e-06
-5.75196e-06
-5.75196e-06
-5.75197e-06
-5.75197e-06
-5.75197e-06
-5.75197e-06
-5.75198e-06
-5.75198e-06
-5.75198e-06
-5.75199e-06
-5.75199e-06
-5.75199e-06
-5.752e-06
-5.752e-06
-5.752e-06
-5.75201e-06
-5.75201e-06
-5.75202e-06
-5.75202e-06
-5.75202e-06
-5.75203e-06
-5.75203e-06
-5.75203e-06
-5.75204e-06
-5.75204e-06
-5.75204e-06
-5.75205e-06
-5.75205e-06
-5.75205e-06
-5.75206e-06
-5.75206e-06
-5.75206e-06
-5.75207e-06
-5.75207e-06
-5.75207e-06
-5.75207e-06
-5.75207e-06
-5.75208e-06
-5.75208e-06
-5.75208e-06
-5.75208e-06
-5.75209e-06
-5.75209e-06
-5.75209e-06
-5.75209e-06
-5.75209e-06
-5.75209e-06
-5.75209e-06
-5.75209e-06
-5.75209e-06
-5.75209e-06
-5.75209e-06
-5.75209e-06
-5.75209e-06
-5.75209e-06
-5.75209e-06
-5.75208e-06
-5.75208e-06
-5.75208e-06
-5.75208e-06
-5.75208e-06
-5.75208e-06
-5.75207e-06
-5.75207e-06
-5.75207e-06
-5.75207e-06
-5.75206e-06
-5.75206e-06
-5.75206e-06
-5.75206e-06
-5.75205e-06
-5.75205e-06
-5.75205e-06
-5.75204e-06
-5.75204e-06
-5.75204e-06
-5.75203e-06
-5.75203e-06
-5.75203e-06
-5.75202e-06
-5.75202e-06
-5.75202e-06
-5.75201e-06
-5.75201e-06
-5.75201e-06
-5.752e-06
-5.752e-06
-5.752e-06
-5.75199e-06
-5.75199e-06
-5.75199e-06
-5.75199e-06
-5.75198e-06
-5.75198e-06
-5.75198e-06
-5.75197e-06
-5.75197e-06
-5.75197e-06
-5.75197e-06
-5.75197e-06
-5.75196e-06
-5.75196e-06
-5.75196e-06
-5.75196e-06
-5.75195e-06
-5.75195e-06
-5.75195e-06
-5.75195e-06
-5.75195e-06
-5.75195e-06
-5.75195e-06
-5.75194e-06
-5.75194e-06
-5.75194e-06
-5.75194e-06
-5.75194e-06
-5.75194e-06
-5.75194e-06
-5.75194e-06
-5.75194e-06
-5.75194e-06
-5.75194e-06
-5.75194e-06
-5.75194e-06
-5.75194e-06
-5.75194e-06
-5.75194e-06
-5.75194e-06
-5.75194e-06
-5.75194e-06
-5.75194e-06
-5.75194e-06
-5.75194e-06
-5.75194e-06
-5.75194e-06
-5.75194e-06
-5.75194e-06
-5.75194e-06
-5.75194e-06
-5.75194e-06
-5.75195e-06
-5.75195e-06
-5.75195e-06
-5.75195e-06
-5.75195e-06
-5.75195e-06
-5.75195e-06
-5.75195e-06
-5.75195e-06
-5.75195e-06
-5.75195e-06
-5.75195e-06
-5.75195e-06
-5.75195e-06
-5.75195e-06
-5.75195e-06
-5.75195e-06
-5.75195e-06
-5.75195e-06
-5.75195e-06
-5.75195e-06
-5.75195e-06
-5.75195e-06
-5.75195e-06
-5.75195e-06
-5.75195e-06
-5.75194e-06
-5.75194e-06
-5.75194e-06
-5.75194e-06
-5.75194e-06
-5.75194e-06
-5.75194e-06
-5.75193e-06
-5.75193e-06
-5.75193e-06
-5.75193e-06
-5.75192e-06
-5.75192e-06
-5.75192e-06
-5.75191e-06
-5.75191e-06
-5.75191e-06
-5.7519e-06
-5.7519e-06
-5.7519e-06
-5.75189e-06
-5.75189e-06
-5.75188e-06
-5.75188e-06
-5.75188e-06
-5.75187e-06
-5.75186e-06
-5.75186e-06
-5.75185e-06
-5.75185e-06
-5.75185e-06
-5.75184e-06
-5.75183e-06
-5.75183e-06
-5.75182e-06
-5.75182e-06
-5.75181e-06
-5.75181e-06
-5.7518e-06
-5.7518e-06
-5.75179e-06
-5.75179e-06
-5.75178e-06
-5.75177e-06
-5.75177e-06
-5.75176e-06
-5.75176e-06
-5.75175e-06
-5.75175e-06
-5.75175e-06
-5.75174e-06
-5.75174e-06
-5.75173e-06
-5.75173e-06
-5.75172e-06
-5.75172e-06
-5.75172e-06
-5.75171e-06
-5.75171e-06
-5.75171e-06
-5.75171e-06
-5.75171e-06
-5.7517e-06
-5.7517e-06
-5.7517e-06
-5.7517e-06
-5.7517e-06
-5.7517e-06
-5.7517e-06
-5.75169e-06
-5.7517e-06
-5.7517e-06
-5.7517e-06
-5.7517e-06
-5.7517e-06
-5.7517e-06
-5.7517e-06
-5.7517e-06
-5.7517e-06
-5.7517e-06
-5.7517e-06
-5.7517e-06
-5.75171e-06
-5.75171e-06
-5.75171e-06
-5.75171e-06
-5.75171e-06
-5.75171e-06
-5.75172e-06
-5.75172e-06
-5.75172e-06
-5.75172e-06
-5.75172e-06
-5.75173e-06
-5.75173e-06
-5.75173e-06
-5.75173e-06
-5.75173e-06
-5.75174e-06
-5.75174e-06
-5.75174e-06
-5.75174e-06
-5.75175e-06
-5.75175e-06
-5.75175e-06
-5.75175e-06
-5.75175e-06
-5.75175e-06
-5.75176e-06
-5.75176e-06
-5.75176e-06
-5.75176e-06
-5.75176e-06
-5.75177e-06
-5.75177e-06
-5.75177e-06
-5.75177e-06
-5.75177e-06
-5.75177e-06
-5.75178e-06
-5.75178e-06
-5.75178e-06
-5.75178e-06
-5.75178e-06
-5.75178e-06
-5.75178e-06
-5.75178e-06
-5.75178e-06
-5.75178e-06
-5.75178e-06
-5.75178e-06
-5.75178e-06
-5.75178e-06
-5.75178e-06
-5.75178e-06
-5.75178e-06
-5.75178e-06
-5.75178e-06
-5.75178e-06
-5.75177e-06
-5.75177e-06
-5.75177e-06
-5.75176e-06
-5.75176e-06
-5.75176e-06
-5.75175e-06
-5.75175e-06
-5.75174e-06
-5.75174e-06
-5.75173e-06
-5.75173e-06
-5.75172e-06
-5.75171e-06
-5.7517e-06
-5.75169e-06
-5.75169e-06
-5.75168e-06
-5.75167e-06
-5.75166e-06
-5.75165e-06
-5.75164e-06
-5.75163e-06
-5.75161e-06
-5.7516e-06
-5.75159e-06
-5.75157e-06
-5.75156e-06
-5.75155e-06
-5.75153e-06
-5.75152e-06
-5.7515e-06
-5.75149e-06
-5.75148e-06
-5.75146e-06
-5.75145e-06
-5.75143e-06
-5.75142e-06
-5.7514e-06
-5.75139e-06
-5.75137e-06
-5.75136e-06
-5.75134e-06
-5.75133e-06
-5.75132e-06
-5.7513e-06
-5.75129e-06
-5.75128e-06
-5.75127e-06
-5.75126e-06
-5.75125e-06
-5.75123e-06
-5.75123e-06
-5.75122e-06
-5.75121e-06
-5.7512e-06
-5.75119e-06
-5.75119e-06
-5.75118e-06
-5.75118e-06
-5.75117e-06
-5.75117e-06
-5.75117e-06
-5.75117e-06
-5.75117e-06
-5.75117e-06
-5.75117e-06
-5.75117e-06
-5.75117e-06
-5.75118e-06
-5.75119e-06
-5.75119e-06
-5.7512e-06
-5.75121e-06
-5.75122e-06
-5.75122e-06
-5.75123e-06
-5.75124e-06
-5.75126e-06
-5.75127e-06
-5.75128e-06
-5.75129e-06
-5.75131e-06
-5.75132e-06
-5.75134e-06
-5.75135e-06
-5.75136e-06
-5.75138e-06
-5.7514e-06
-5.75141e-06
-5.75143e-06
-5.75144e-06
-5.75146e-06
-5.75148e-06
-5.75149e-06
-5.75151e-06
-5.75152e-06
-5.75154e-06
-5.75155e-06
-5.75157e-06
-5.75158e-06
-5.75159e-06
-5.7516e-06
-5.75161e-06
-5.75162e-06
-5.75163e-06
-5.75164e-06
-5.75165e-06
-5.75166e-06
-5.75166e-06
-5.75167e-06
-5.75168e-06
-5.75168e-06
-5.75168e-06
-5.75168e-06
-5.75168e-06
-5.75168e-06
-5.75168e-06
-5.75168e-06
-5.75168e-06
-5.75167e-06
-5.75167e-06
-5.75166e-06
-5.75165e-06
-5.75164e-06
-5.75164e-06
-5.75163e-06
-5.75162e-06
-5.7516e-06
-5.75159e-06
-5.75158e-06
-5.75157e-06
-5.75155e-06
-5.75154e-06
-5.75152e-06
-5.7515e-06
-5.75149e-06
-5.75147e-06
-5.75145e-06
-5.75143e-06
-5.75141e-06
-5.7514e-06
-5.75138e-06
-5.75136e-06
-5.75134e-06
-5.75132e-06
-5.7513e-06
-5.75129e-06
-5.75127e-06
-5.75125e-06
-5.75123e-06
-5.75121e-06
-5.7512e-06
-5.75118e-06
-5.75117e-06
-5.75115e-06
-5.75114e-06
-5.75112e-06
-5.75111e-06
-5.7511e-06
-5.75109e-06
-5.75107e-06
-5.75106e-06
-5.75106e-06
-5.75105e-06
-5.75104e-06
-5.75103e-06
-5.75103e-06
-5.75102e-06
-5.75102e-06
-5.75102e-06
-5.75101e-06
-5.75101e-06
-5.75101e-06
-5.75101e-06
-5.75101e-06
-5.75101e-06
-5.75101e-06
-5.75101e-06
-5.75101e-06
-5.75102e-06
-5.75102e-06
-5.75103e-06
-5.75103e-06
-5.75104e-06
-5.75105e-06
-5.75105e-06
-5.75106e-06
-5.75107e-06
-5.75109e-06
-5.7511e-06
-5.75112e-06
-5.75113e-06
-5.75115e-06
-5.75117e-06
-5.7512e-06
-5.75123e-06
-5.75126e-06
-5.7513e-06
-5.75134e-06
-5.75139e-06
-5.75144e-06
-5.75151e-06
-5.75158e-06
-5.75167e-06
-5.75177e-06
-5.75188e-06
-5.75201e-06
-5.75216e-06
-5.75233e-06
-5.75253e-06
-5.75276e-06
-5.75302e-06
-5.75332e-06
-5.75366e-06
-5.75406e-06
-5.75451e-06
-5.75502e-06
-5.75561e-06
-5.75628e-06
-5.75705e-06
-5.75792e-06
-5.75891e-06
-5.76003e-06
-5.76131e-06
-5.76275e-06
-5.76438e-06
-5.76622e-06
-5.76831e-06
-5.77065e-06
-5.77329e-06
-5.77626e-06
-5.7796e-06
-5.78334e-06
-5.78753e-06
-5.79223e-06
-5.79747e-06
-5.80332e-06
-5.80985e-06
-5.81712e-06
-5.8252e-06
-5.83418e-06
-5.84413e-06
-5.85516e-06
-5.86737e-06
-5.88085e-06
-5.89573e-06
-5.91213e-06
-5.93018e-06
-5.95002e-06
-5.9718e-06
-5.99568e-06
-6.02182e-06
-6.05041e-06
-6.08163e-06
-6.11567e-06
-6.15275e-06
-6.19308e-06
-6.23688e-06
-6.28441e-06
-6.33589e-06
-6.3916e-06
-6.45179e-06
-6.51675e-06
-6.58677e-06
-6.66213e-06
-6.74315e-06
-6.83014e-06
-6.92343e-06
-7.02334e-06
-7.13022e-06
-7.24441e-06
-7.36628e-06
-7.49617e-06
-7.63447e-06
-7.78156e-06
-7.9378e-06
-8.1036e-06
-8.27934e-06
-8.46544e-06
-8.66229e-06
-8.87032e-06
-9.08993e-06
-9.32157e-06
-9.56565e-06
-9.82264e-06
-1.0093e-05
-1.03771e-05
-1.06755e-05
-1.09887e-05
-1.13171e-05
-1.16613e-05
-1.20217e-05
-1.23991e-05
-1.27938e-05
-1.32066e-05
-1.3638e-05
-1.40888e-05
-1.45596e-05
-1.50514e-05
-1.55649e-05
-1.61011e-05
-1.66612e-05
-1.72463e-05
-1.78579e-05
-1.84879e-05
-1.91464e-05
-1.98358e-05
-2.05573e-05
-2.13124e-05
-2.21026e-05
-2.29291e-05
-2.37935e-05
-2.46967e-05
-2.56391e-05
-2.66199e-05
-2.76365e-05
-2.86826e-05
-2.97465e-05
-3.08071e-05
-3.1828e-05
-3.27466e-05
-3.34552e-05
)
;

boundaryField
{
    fixedWall
    {
        type            calculated;
        value           uniform 0;
    }
    outlet
    {
        type            calculated;
        value           uniform -3.37664e-05;
    }
    defaultFaces
    {
        type            empty;
    }
}


// ************************************************************************* //
