/*--------------------------------*- C++ -*----------------------------------*\
| =========                 |                                                 |
| \\      /  F ield         | OpenFOAM: The Open Source CFD Toolbox           |
|  \\    /   O peration     | Version:  2406                                  |
|   \\  /    A nd           | Website:  www.openfoam.com                      |
|    \\/     M anipulation  |                                                 |
\*---------------------------------------------------------------------------*/
FoamFile
{
    version     2.0;
    format      ascii;
    arch        "LSB;label=32;scalar=64";
    class       volScalarField;
    location    "7.7";
    object      Qdot;
}
// * * * * * * * * * * * * * * * * * * * * * * * * * * * * * * * * * * * * * //

dimensions      [1 -1 -3 0 0 0 0];

internalField   nonuniform List<scalar> 
1000
(
4.98389e-14
-7.47888e-17
-1.28007e-15
7.60885e-09
3.8379e-08
1.90763e-07
7.32322e-07
2.33034e-06
6.42302e-06
1.56847e-05
3.46236e-05
7.02218e-05
0.00013249
0.000234964
0.000394884
0.000633231
0.000974395
0.00144561
0.00207612
0.00289617
0.00393582
0.00522383
0.00678639
0.00864605
0.0108208
0.0133231
0.0161597
0.0193309
0.0228306
0.0266466
0.0307604
0.0351483
0.0397818
0.0446283
0.049652
0.0548147
0.0600769
0.0653986
0.0707397
0.0760616
0.0813272
0.0865016
0.0915526
0.0964514
0.101172
0.105693
0.109996
0.114066
0.117891
0.121463
0.124779
0.127835
0.130634
0.133178
0.135473
0.137526
0.139347
0.140944
0.14233
0.143516
0.144515
0.145339
0.146001
0.146515
0.146893
0.147147
0.14729
0.147333
0.147287
0.147163
0.146972
0.146722
0.146422
0.146081
0.145705
0.145302
0.144879
0.14444
0.143991
0.143537
0.143083
0.14263
0.142184
0.141747
0.14132
0.140908
0.140511
0.14013
0.139768
0.139425
0.139102
0.138799
0.138518
0.138257
0.138019
0.137801
0.137605
0.13743
0.137276
0.137142
0.137029
0.136934
0.136859
0.136803
0.136764
0.136743
0.136738
0.13675
0.136777
0.136819
0.136875
0.136944
0.137027
0.137122
0.137228
0.137346
0.137475
0.137613
0.137761
0.137919
0.138084
0.138258
0.138439
0.138628
0.138823
0.139025
0.139233
0.139446
0.139665
0.139888
0.140115
0.140347
0.140582
0.140823
0.141067
0.141314
0.141565
0.141818
0.142074
0.142333
0.142594
0.142857
0.143122
0.143389
0.143659
0.143929
0.144202
0.144476
0.144751
0.145028
0.145306
0.145585
0.145866
0.146147
0.14643
0.146713
0.146998
0.147283
0.147569
0.147856
0.148144
0.148433
0.148723
0.149013
0.149304
0.149596
0.149889
0.150182
0.150476
0.150771
0.151066
0.151362
0.151659
0.151957
0.152255
0.152554
0.152854
0.153154
0.153455
0.153757
0.154059
0.154363
0.154667
0.154971
0.155277
0.155583
0.15589
0.156198
0.156507
0.156816
0.157126
0.157437
0.157748
0.158061
0.158374
0.158688
0.159003
0.159319
0.159636
0.159953
0.160271
0.16059
0.160908
0.161229
0.161551
0.161874
0.162197
0.162522
0.162847
0.163174
0.163501
0.163829
0.164158
0.164488
0.164819
0.16515
0.165483
0.165816
0.166151
0.166486
0.166823
0.16716
0.167498
0.167837
0.168178
0.168519
0.168861
0.169204
0.169548
0.169893
0.170239
0.170586
0.170934
0.171283
0.171633
0.171984
0.172335
0.172688
0.173042
0.173397
0.173753
0.17411
0.174468
0.174828
0.175188
0.175549
0.175911
0.176274
0.176639
0.177004
0.17737
0.177738
0.178106
0.178476
0.178847
0.179219
0.179591
0.179965
0.18034
0.180717
0.181094
0.181472
0.181852
0.182232
0.182614
0.182997
0.183381
0.183766
0.184152
0.18454
0.184928
0.185318
0.185709
0.186101
0.186494
0.186888
0.187284
0.187681
0.188079
0.188478
0.188878
0.18928
0.189683
0.190087
0.190492
0.190898
0.191306
0.191715
0.192125
0.192536
0.192949
0.193363
0.193778
0.194195
0.194613
0.195032
0.195452
0.195874
0.196295
0.196717
0.197142
0.197569
0.197998
0.198427
0.198858
0.199291
0.199724
0.200159
0.200596
0.201034
0.201473
0.201913
0.202355
0.202799
0.203244
0.20369
0.204137
0.204586
0.205037
0.205489
0.205942
0.206397
0.206853
0.20731
0.20777
0.20823
0.208692
0.209156
0.209621
0.210088
0.210556
0.211025
0.211497
0.211969
0.212443
0.212919
0.213397
0.213875
0.214356
0.214838
0.215322
0.215807
0.216294
0.216782
0.217272
0.217764
0.218258
0.218753
0.219249
0.219748
0.220248
0.22075
0.221253
0.221758
0.222265
0.222774
0.223284
0.223796
0.22431
0.224826
0.225343
0.225862
0.226383
0.226906
0.227431
0.227957
0.228485
0.229016
0.229548
0.230082
0.230617
0.231155
0.231695
0.232236
0.232779
0.233325
0.233872
0.234421
0.234973
0.235526
0.236081
0.236638
0.237197
0.237759
0.238322
0.238887
0.239454
0.240024
0.240595
0.241169
0.241744
0.242322
0.242902
0.243484
0.244068
0.244654
0.245242
0.245833
0.246425
0.24702
0.247617
0.248216
0.248818
0.249421
0.250027
0.250635
0.251245
0.251858
0.252472
0.253089
0.253709
0.25433
0.254952
0.255574
0.256203
0.256835
0.257468
0.258104
0.258742
0.259382
0.260025
0.26067
0.261317
0.261967
0.262619
0.263274
0.263931
0.26459
0.265252
0.265916
0.266583
0.267252
0.267923
0.268597
0.269274
0.269953
0.270635
0.271319
0.272005
0.27269
0.273381
0.274075
0.274772
0.275471
0.276173
0.276878
0.277585
0.278295
0.279008
0.279724
0.280442
0.281163
0.281886
0.282613
0.283342
0.284074
0.284809
0.285546
0.286287
0.28703
0.287776
0.288526
0.289278
0.290033
0.29079
0.291551
0.292315
0.293082
0.293852
0.294625
0.295401
0.29618
0.296962
0.297747
0.298535
0.299326
0.300121
0.300919
0.30172
0.302524
0.303331
0.304142
0.304955
0.305773
0.306593
0.307417
0.308244
0.309074
0.309908
0.310745
0.311586
0.31243
0.313277
0.314128
0.314982
0.31584
0.316702
0.317566
0.318435
0.319307
0.320183
0.321062
0.321945
0.322832
0.323722
0.324616
0.325514
0.326415
0.327321
0.32823
0.329139
0.33005
0.33097
0.331895
0.332823
0.333755
0.334692
0.335632
0.336576
0.337524
0.338476
0.339433
0.340393
0.341357
0.342326
0.343299
0.344275
0.345257
0.346242
0.347231
0.348225
0.349223
0.350226
0.351233
0.352244
0.353259
0.354279
0.355304
0.356333
0.357366
0.358404
0.359446
0.360494
0.361545
0.362601
0.363662
0.364728
0.365798
0.366873
0.367953
0.369038
0.370127
0.371221
0.37232
0.373424
0.374533
0.375647
0.376766
0.377889
0.379018
0.380146
0.381278
0.382421
0.38357
0.384724
0.385883
0.387047
0.388216
0.38939
0.39057
0.391755
0.392945
0.394141
0.395342
0.396548
0.39776
0.398978
0.400201
0.401429
0.402663
0.403903
0.405148
0.406399
0.407656
0.408919
0.410187
0.411461
0.412741
0.414027
0.415319
0.416617
0.417921
0.419232
0.420548
0.42187
0.423199
0.424534
0.425875
0.427222
0.428576
0.429937
0.431304
0.432677
0.434057
0.435443
0.436837
0.438236
0.439643
0.441057
0.442477
0.443904
0.445338
0.446779
0.448227
0.449683
0.451145
0.452614
0.454091
0.455575
0.457067
0.458565
0.460072
0.461585
0.463106
0.464635
0.466172
0.467716
0.469267
0.470827
0.47239
0.473955
0.475539
0.47713
0.478729
0.480337
0.481952
0.483576
0.485208
0.486848
0.488496
0.490153
0.491819
0.493492
0.495175
0.496866
0.498566
0.500274
0.501992
0.503718
0.505453
0.507197
0.508951
0.510713
0.512485
0.514266
0.516056
0.517855
0.519665
0.521483
0.523311
0.525149
0.526997
0.528855
0.530722
0.5326
0.534487
0.536385
0.538293
0.540211
0.54214
0.544079
0.546029
0.547989
0.54996
0.551941
0.553934
0.555937
0.557951
0.559976
0.562013
0.564061
0.566119
0.56819
0.570271
0.572365
0.574469
0.576586
0.578714
0.580854
0.583006
0.58517
0.587345
0.589533
0.591733
0.593945
0.59617
0.598407
0.600656
0.602918
0.605187
0.607459
0.609759
0.612071
0.614396
0.616734
0.619084
0.621449
0.623826
0.626217
0.628621
0.631038
0.63347
0.635915
0.638373
0.640846
0.643333
0.645834
0.648349
0.650878
0.653422
0.65598
0.658554
0.661141
0.663744
0.666362
0.668995
0.671644
0.674307
0.676987
0.679682
0.682393
0.68512
0.687863
0.690623
0.693399
0.696191
0.699
0.701827
0.70467
0.707531
0.710409
0.713305
0.716218
0.71915
0.7221
0.725068
0.728054
0.731059
0.734083
0.737127
0.740189
0.743271
0.746372
0.749493
0.752635
0.755796
0.758978
0.76218
0.765403
0.768647
0.771906
0.77517
0.778478
0.781808
0.785159
0.788533
0.791929
0.795347
0.798788
0.802252
0.80574
0.80925
0.812784
0.816342
0.819924
0.82353
0.82716
0.830815
0.834494
0.838198
0.841927
0.845682
0.849462
0.853268
0.857099
0.860957
0.864841
0.868751
0.872688
0.876652
0.880643
0.884661
0.888707
0.89278
0.896881
0.901011
0.905169
0.909355
0.91357
0.917814
0.922087
0.92639
0.930722
0.935084
0.939477
0.9439
0.948353
0.952837
0.957353
0.9619
0.966478
0.971089
0.975732
0.980407
0.985115
0.989857
0.994632
0.99944
1.00428
1.00916
1.01407
1.01902
1.024
1.02902
1.03407
1.03914
1.04424
1.04941
1.05461
1.05985
1.06513
1.07045
1.07581
1.08121
1.08665
1.09213
1.09765
1.10321
1.10881
1.11446
1.12015
1.12588
1.13165
1.13747
1.14334
1.14925
1.15521
1.16121
1.16726
1.17335
1.1795
1.18569
1.19193
1.19823
1.20457
1.21096
1.21741
1.2239
1.23045
1.23705
1.24371
1.25042
1.25714
1.26397
1.27081
1.27771
1.2847
1.29174
1.29884
1.306
1.31322
1.3205
1.32784
1.33524
1.3427
1.35022
1.35781
1.36546
1.37318
1.38096
1.38881
1.39672
1.4047
1.41275
1.42086
1.42905
1.4373
1.44562
1.45402
1.46249
1.47103
1.47964
1.48833
1.49709
1.50592
1.51484
1.52383
1.5329
1.54205
1.55127
1.56059
1.56998
1.57946
1.58902
1.59868
1.60842
1.61826
1.62819
1.63823
1.64837
1.65862
1.66899
1.67947
1.69009
1.70085
1.71176
1.72282
1.73407
1.74551
1.75715
1.76903
1.78117
1.7936
1.80634
1.81944
1.83293
1.84687
1.8613
1.87629
1.8919
1.9082
1.92529
1.94323
1.96214
1.98213
2.0033
2.02579
2.04973
2.07527
2.10256
2.13175
2.16303
2.19654
2.23247
2.27098
2.31222
2.35635
2.40348
2.4537
2.50707
2.56359
2.62319
2.68571
2.75088
2.81833
2.88752
2.95772
3.02803
3.09729
3.16412
3.22684
3.28351
3.3319
3.36953
3.39367
3.40146
3.38993
3.35621
3.29763
3.21196
3.0976
2.95384
2.78112
2.58119
2.35727
2.1141
1.85784
1.59581
1.33608
1.08688
0.855971
0.65055
0.476312
0.331203
0.218239
0.135163
0.0779049
0.0412838
0.019813
0.00844994
0.00312626
0.000972682
0.00024435
4.69407e-05
6.40217e-06
5.58108e-07
2.66827e-08
2.83135e-10
-6.1765e-18
-8.08807e-11
)
;

boundaryField
{
    fixedWall
    {
        type            calculated;
        value           uniform 0;
    }
    outlet
    {
        type            calculated;
        value           uniform 0;
    }
    defaultFaces
    {
        type            empty;
    }
}


// ************************************************************************* //
