/*--------------------------------*- C++ -*----------------------------------*\
| =========                 |                                                 |
| \\      /  F ield         | OpenFOAM: The Open Source CFD Toolbox           |
|  \\    /   O peration     | Version:  2406                                  |
|   \\  /    A nd           | Website:  www.openfoam.com                      |
|    \\/     M anipulation  |                                                 |
\*---------------------------------------------------------------------------*/
FoamFile
{
    version     2.0;
    format      ascii;
    arch        "LSB;label=32;scalar=64";
    class       volScalarField;
    location    "7.7";
    object      T;
}
// * * * * * * * * * * * * * * * * * * * * * * * * * * * * * * * * * * * * * //

dimensions      [0 0 0 1 0 0 0];

internalField   nonuniform List<scalar> 
1000
(
307.766
334.647
359.279
382.059
403.279
423.156
441.861
459.531
476.277
492.191
507.35
521.818
535.653
548.902
561.607
573.807
585.533
596.815
607.679
618.148
628.244
637.986
647.391
656.475
665.253
673.739
681.945
689.882
697.563
704.995
712.19
719.155
725.9
732.431
738.757
744.884
750.819
756.569
762.138
767.533
772.76
777.823
782.728
787.479
792.081
796.538
800.855
805.035
809.083
813.003
816.797
820.47
824.025
827.466
830.796
834.017
837.133
840.148
843.062
845.881
848.606
851.24
853.785
856.244
858.62
860.915
863.131
865.271
867.336
869.33
871.253
873.108
874.898
876.623
878.286
879.89
881.434
882.923
884.356
885.736
887.065
888.343
889.574
890.757
891.895
892.99
894.041
895.052
896.023
896.955
897.851
898.71
899.535
900.326
901.085
901.813
902.51
903.178
903.819
904.432
905.019
905.581
906.119
906.633
907.125
907.595
908.044
908.474
908.884
909.276
909.649
910.006
910.346
910.671
910.98
911.275
911.556
911.823
912.078
912.321
912.551
912.771
912.979
913.178
913.366
913.545
913.715
913.876
914.029
914.175
914.312
914.443
914.566
914.683
914.794
914.899
914.999
915.093
915.182
915.266
915.345
915.42
915.491
915.558
915.621
915.68
915.737
915.789
915.839
915.886
915.93
915.972
916.011
916.047
916.082
916.114
916.144
916.173
916.2
916.225
916.248
916.27
916.29
916.31
916.328
916.344
916.36
916.374
916.388
916.401
916.412
916.423
916.433
916.443
916.452
916.46
916.467
916.474
916.48
916.486
916.492
916.497
916.501
916.505
916.509
916.513
916.516
916.519
916.521
916.523
916.526
916.527
916.529
916.53
916.532
916.533
916.534
916.534
916.535
916.536
916.536
916.536
916.536
916.536
916.536
916.536
916.536
916.536
916.536
916.535
916.535
916.534
916.534
916.533
916.533
916.532
916.531
916.531
916.53
916.529
916.528
916.527
916.527
916.526
916.525
916.524
916.523
916.522
916.522
916.521
916.52
916.519
916.518
916.517
916.516
916.515
916.514
916.514
916.513
916.512
916.511
916.51
916.509
916.508
916.507
916.507
916.506
916.505
916.504
916.503
916.503
916.502
916.501
916.5
916.5
916.499
916.498
916.498
916.497
916.496
916.496
916.495
916.494
916.494
916.493
916.493
916.492
916.491
916.491
916.49
916.49
916.489
916.489
916.489
916.488
916.488
916.487
916.487
916.487
916.486
916.486
916.486
916.485
916.485
916.485
916.485
916.484
916.484
916.484
916.484
916.484
916.484
916.484
916.483
916.483
916.483
916.483
916.483
916.483
916.483
916.483
916.483
916.483
916.483
916.483
916.483
916.484
916.484
916.484
916.484
916.484
916.484
916.484
916.485
916.485
916.485
916.485
916.486
916.486
916.486
916.486
916.487
916.487
916.487
916.487
916.488
916.488
916.488
916.489
916.489
916.49
916.49
916.49
916.491
916.491
916.491
916.492
916.492
916.493
916.493
916.493
916.494
916.494
916.495
916.495
916.496
916.496
916.496
916.497
916.497
916.498
916.498
916.499
916.499
916.499
916.5
916.5
916.501
916.501
916.501
916.502
916.502
916.503
916.503
916.503
916.504
916.504
916.504
916.505
916.505
916.505
916.506
916.506
916.506
916.507
916.507
916.507
916.508
916.508
916.508
916.508
916.509
916.509
916.509
916.509
916.509
916.51
916.51
916.51
916.51
916.51
916.511
916.511
916.511
916.511
916.511
916.511
916.511
916.511
916.511
916.512
916.512
916.512
916.512
916.512
916.512
916.512
916.512
916.512
916.512
916.512
916.512
916.512
916.512
916.512
916.512
916.512
916.512
916.512
916.512
916.512
916.512
916.512
916.512
916.512
916.512
916.512
916.512
916.512
916.512
916.512
916.512
916.512
916.512
916.512
916.512
916.512
916.512
916.512
916.512
916.512
916.512
916.512
916.512
916.512
916.512
916.512
916.512
916.512
916.512
916.512
916.512
916.512
916.512
916.512
916.512
916.512
916.512
916.512
916.512
916.512
916.512
916.513
916.513
916.513
916.513
916.513
916.513
916.513
916.513
916.513
916.513
916.513
916.513
916.513
916.513
916.514
916.514
916.514
916.514
916.514
916.514
916.514
916.514
916.514
916.514
916.514
916.514
916.514
916.514
916.515
916.515
916.515
916.515
916.515
916.515
916.515
916.515
916.515
916.515
916.515
916.515
916.515
916.515
916.515
916.515
916.515
916.515
916.515
916.515
916.515
916.515
916.515
916.515
916.515
916.515
916.515
916.515
916.515
916.515
916.515
916.515
916.515
916.515
916.515
916.515
916.515
916.515
916.515
916.515
916.515
916.515
916.515
916.514
916.514
916.514
916.514
916.514
916.514
916.514
916.514
916.514
916.514
916.514
916.514
916.514
916.514
916.514
916.514
916.514
916.514
916.514
916.514
916.514
916.513
916.513
916.513
916.513
916.513
916.513
916.513
916.513
916.513
916.513
916.513
916.513
916.514
916.514
916.514
916.514
916.514
916.514
916.514
916.514
916.514
916.514
916.514
916.514
916.514
916.514
916.514
916.515
916.515
916.515
916.515
916.515
916.515
916.515
916.515
916.516
916.516
916.516
916.516
916.516
916.516
916.516
916.517
916.517
916.517
916.517
916.517
916.517
916.517
916.518
916.518
916.518
916.518
916.518
916.518
916.518
916.518
916.519
916.519
916.519
916.519
916.519
916.519
916.519
916.519
916.519
916.519
916.519
916.519
916.52
916.52
916.52
916.52
916.52
916.52
916.52
916.52
916.52
916.52
916.52
916.52
916.52
916.52
916.52
916.519
916.519
916.519
916.519
916.519
916.519
916.519
916.519
916.519
916.519
916.519
916.519
916.518
916.518
916.518
916.518
916.518
916.518
916.518
916.517
916.517
916.517
916.517
916.517
916.517
916.516
916.516
916.516
916.516
916.516
916.516
916.515
916.515
916.515
916.515
916.515
916.514
916.514
916.514
916.514
916.514
916.513
916.513
916.513
916.513
916.513
916.513
916.512
916.512
916.512
916.512
916.512
916.512
916.512
916.512
916.512
916.511
916.511
916.511
916.511
916.511
916.511
916.511
916.511
916.511
916.511
916.511
916.512
916.512
916.512
916.512
916.512
916.512
916.512
916.513
916.513
916.513
916.513
916.514
916.514
916.514
916.514
916.515
916.515
916.515
916.516
916.516
916.517
916.517
916.517
916.518
916.518
916.519
916.519
916.519
916.52
916.52
916.521
916.521
916.522
916.522
916.522
916.523
916.523
916.524
916.524
916.524
916.525
916.525
916.525
916.526
916.526
916.526
916.527
916.527
916.527
916.527
916.527
916.528
916.528
916.528
916.528
916.528
916.528
916.528
916.528
916.528
916.528
916.527
916.527
916.527
916.527
916.527
916.526
916.526
916.526
916.525
916.525
916.525
916.524
916.524
916.523
916.523
916.522
916.522
916.521
916.521
916.52
916.52
916.519
916.518
916.518
916.517
916.517
916.516
916.515
916.515
916.514
916.514
916.513
916.513
916.512
916.511
916.511
916.51
916.51
916.509
916.509
916.508
916.508
916.508
916.507
916.507
916.506
916.506
916.506
916.506
916.505
916.505
916.505
916.505
916.504
916.504
916.504
916.504
916.504
916.504
916.504
916.504
916.504
916.504
916.504
916.504
916.504
916.504
916.504
916.504
916.505
916.505
916.505
916.505
916.505
916.505
916.506
916.506
916.506
916.506
916.506
916.506
916.507
916.507
916.507
916.507
916.507
916.507
916.507
916.508
916.508
916.508
916.508
916.508
916.508
916.508
916.508
916.508
916.508
916.508
916.508
916.508
916.508
916.507
916.507
916.507
916.507
916.506
916.506
916.506
916.505
916.505
916.504
916.503
916.502
916.502
916.501
916.499
916.498
916.496
916.495
916.493
916.49
916.488
916.485
916.481
916.477
916.473
916.468
916.462
916.455
916.448
916.439
916.43
916.418
916.406
916.391
916.375
916.357
916.336
916.312
916.285
916.255
916.221
916.182
916.139
916.09
916.035
915.974
915.905
915.828
915.742
915.645
915.538
915.418
915.285
915.137
914.973
914.791
914.59
914.368
914.122
913.851
913.553
913.226
912.866
912.471
912.039
911.567
911.051
910.488
909.875
909.209
908.485
907.699
906.849
905.928
904.933
903.859
902.702
901.456
900.117
898.678
897.135
895.482
893.712
891.82
889.799
887.643
885.345
882.897
880.292
877.523
874.58
871.455
868.139
864.623
860.895
856.945
852.76
848.329
843.636
838.668
833.408
827.838
821.94
815.691
809.07
802.05
794.604
786.702
778.309
769.388
759.897
749.793
739.023
727.625
715.544
702.447
688.436
673.433
657.353
640.103
621.586
601.703
580.348
557.422
532.827
506.481
478.323
448.326
416.51
382.958
347.84
311.442
)
;

boundaryField
{
    fixedWall
    {
        type            fixedValue;
        value           uniform 293;
    }
    outlet
    {
        type            inletOutlet;
        inletValue      uniform 293;
        value           uniform 293;
    }
    defaultFaces
    {
        type            empty;
    }
}


// ************************************************************************* //
