/*--------------------------------*- C++ -*----------------------------------*\
| =========                 |                                                 |
| \\      /  F ield         | OpenFOAM: The Open Source CFD Toolbox           |
|  \\    /   O peration     | Version:  2406                                  |
|   \\  /    A nd           | Website:  www.openfoam.com                      |
|    \\/     M anipulation  |                                                 |
\*---------------------------------------------------------------------------*/
FoamFile
{
    version     2.0;
    format      ascii;
    arch        "LSB;label=32;scalar=64";
    class       volScalarField;
    location    "10.7";
    object      Qdot;
}
// * * * * * * * * * * * * * * * * * * * * * * * * * * * * * * * * * * * * * //

dimensions      [1 -1 -3 0 0 0 0];

internalField   nonuniform List<scalar> 
1000
(
-1.06202e-18
-2.61593e-17
-3.41357e-16
-2.84388e-15
9.70652e-09
3.66723e-08
1.38873e-07
4.31191e-07
1.19448e-06
2.94108e-06
6.58715e-06
1.36085e-05
2.62405e-05
4.76557e-05
8.21214e-05
0.000135162
0.000213592
0.000325541
0.000480375
0.000688548
0.000961381
0.00131079
0.00174896
0.00228797
0.00293946
0.00371421
0.00462184
0.00567045
0.00686638
0.00821396
0.00971535
0.0113705
0.0131769
0.0151301
0.0172231
0.0194471
0.0217912
0.024243
0.0267888
0.0294136
0.0321015
0.0348361
0.0376007
0.0403786
0.0431534
0.045909
0.04863
0.0513019
0.0539114
0.0564459
0.0588943
0.061247
0.0634952
0.065632
0.0676514
0.069549
0.0713216
0.072967
0.0744845
0.0758742
0.0771372
0.0782754
0.0792917
0.0801894
0.0809726
0.0816457
0.0822137
0.0826818
0.0830553
0.08334
0.0835415
0.0836656
0.083718
0.0837044
0.0836304
0.0835014
0.0833226
0.0830992
0.082836
0.0825376
0.0822086
0.0818529
0.0814746
0.0810774
0.0806646
0.0802394
0.0798048
0.0793635
0.078918
0.0784705
0.0780232
0.0775778
0.0771361
0.0766996
0.0762696
0.0758473
0.0754337
0.0750298
0.0746363
0.0742538
0.073883
0.0735242
0.0731779
0.0728443
0.0725237
0.0722161
0.0719216
0.0716403
0.0713721
0.071117
0.0708748
0.0706454
0.0704285
0.0702241
0.0700318
0.0698515
0.0696828
0.0695254
0.0693792
0.0692436
0.0691186
0.0690036
0.0688985
0.0688029
0.0687165
0.0686389
0.0685699
0.0685091
0.0684562
0.0684109
0.068373
0.068342
0.0683178
0.0683
0.0682883
0.0682825
0.0682824
0.0682877
0.068298
0.0683133
0.0683332
0.0683575
0.0683861
0.0684187
0.068455
0.0684951
0.0685385
0.0685852
0.068635
0.0686877
0.0687432
0.0688013
0.0688619
0.0689247
0.0689899
0.0690571
0.0691262
0.069197
0.0692699
0.0693444
0.0694204
0.0694978
0.0695764
0.0696566
0.0697381
0.0698207
0.0699044
0.0699892
0.0700749
0.0701615
0.070249
0.0703373
0.0704263
0.0705161
0.0706065
0.0706975
0.0707892
0.0708814
0.0709741
0.0710673
0.071161
0.0712551
0.0713497
0.0714446
0.07154
0.0716352
0.0717312
0.0718276
0.0719242
0.0720211
0.0721183
0.0722157
0.0723134
0.0724113
0.0725095
0.0726079
0.0727065
0.0728053
0.0729043
0.0730035
0.0731029
0.0732025
0.0733023
0.0734022
0.0735023
0.0736026
0.073703
0.0738037
0.0739045
0.0740054
0.0741066
0.0742078
0.0743093
0.0744109
0.0745127
0.0746146
0.0747167
0.074819
0.0749214
0.075024
0.0751267
0.0752296
0.0753327
0.0754359
0.0755393
0.0756428
0.0757465
0.0758504
0.0759545
0.0760587
0.076163
0.0762676
0.0763723
0.0764772
0.0765822
0.0766875
0.0767929
0.0768984
0.0770042
0.0771101
0.0772162
0.0773225
0.077429
0.0775356
0.0776424
0.0777495
0.0778566
0.0779637
0.0780708
0.0781786
0.0782866
0.0783948
0.0785032
0.0786117
0.0787205
0.0788294
0.0789385
0.0790478
0.0791572
0.0792669
0.0793768
0.0794868
0.0795971
0.0797076
0.0798182
0.0799291
0.0800401
0.0801514
0.0802628
0.0803745
0.0804864
0.0805981
0.0807104
0.0808229
0.0809356
0.0810485
0.0811616
0.0812749
0.0813884
0.0815022
0.0816161
0.0817302
0.0818446
0.0819591
0.0820739
0.0821889
0.0823041
0.0824195
0.0825352
0.082651
0.0827671
0.0828834
0.0829999
0.0831167
0.0832337
0.0833508
0.0834683
0.0835859
0.0837038
0.0838217
0.0839394
0.084058
0.0841768
0.0842958
0.0844151
0.0845346
0.0846543
0.0847743
0.0848945
0.0850149
0.0851356
0.0852565
0.0853777
0.0854991
0.0856207
0.0857426
0.0858648
0.0859872
0.0861098
0.0862327
0.0863558
0.0864792
0.0866028
0.0867267
0.0868508
0.0869752
0.0870999
0.0872248
0.0873499
0.0874753
0.087601
0.087727
0.0878532
0.0879796
0.0881064
0.0882334
0.0883606
0.0884882
0.088616
0.088744
0.0888724
0.089001
0.0891299
0.089259
0.0893885
0.0895182
0.0896482
0.0897785
0.089909
0.0900399
0.090171
0.0903024
0.0904341
0.0905661
0.0906984
0.0908309
0.0909638
0.0910969
0.0912303
0.091364
0.0914981
0.0916324
0.091767
0.0919019
0.0920372
0.0921727
0.0923085
0.0924446
0.0925811
0.0927178
0.0928548
0.0929922
0.0931298
0.0932678
0.0934061
0.0935447
0.0936836
0.0938228
0.0939623
0.0941022
0.0942423
0.0943828
0.0945236
0.0946647
0.0948061
0.0949479
0.09509
0.0952324
0.0953751
0.0955182
0.0956615
0.0958052
0.0959493
0.0960936
0.0962383
0.0963833
0.0965287
0.0966744
0.0968204
0.0969667
0.0971134
0.0972604
0.0974078
0.0975555
0.0977035
0.0978519
0.0980006
0.0981496
0.098299
0.0984487
0.0985988
0.0987492
0.0989
0.0990511
0.0992025
0.0993543
0.0995065
0.099659
0.0998118
0.099965
0.100119
0.100272
0.100427
0.100581
0.100736
0.100892
0.101047
0.101203
0.10136
0.101516
0.101674
0.101831
0.101989
0.102147
0.102306
0.102464
0.102624
0.102783
0.102943
0.103104
0.103265
0.103426
0.103587
0.103749
0.103911
0.104074
0.104237
0.104401
0.104564
0.104729
0.104893
0.105058
0.105223
0.105389
0.105555
0.105722
0.105889
0.106056
0.106223
0.106392
0.10656
0.106729
0.106898
0.107068
0.107238
0.107408
0.107579
0.10775
0.107922
0.108094
0.108267
0.10844
0.108613
0.108787
0.108961
0.109135
0.10931
0.109486
0.109662
0.109838
0.110015
0.110192
0.110369
0.110547
0.110726
0.110904
0.111084
0.111263
0.111444
0.111624
0.111805
0.111987
0.112169
0.112351
0.112534
0.112717
0.112901
0.113085
0.113269
0.113455
0.11364
0.113826
0.114012
0.114199
0.114387
0.114575
0.114763
0.114952
0.115141
0.11533
0.115521
0.115711
0.115902
0.116094
0.116286
0.116478
0.116671
0.116865
0.117059
0.117253
0.117448
0.117644
0.11784
0.118036
0.118233
0.11843
0.118628
0.118827
0.119026
0.119225
0.119425
0.119625
0.119826
0.120028
0.12023
0.120432
0.120635
0.120838
0.121042
0.121247
0.121452
0.121657
0.121863
0.12207
0.122277
0.122484
0.122693
0.122901
0.12311
0.12332
0.12353
0.123741
0.123952
0.124164
0.124377
0.12459
0.124803
0.125017
0.125232
0.125447
0.125662
0.125879
0.126095
0.126313
0.126531
0.126749
0.126968
0.127188
0.127408
0.127628
0.12785
0.128071
0.128294
0.128517
0.12874
0.128965
0.129189
0.129415
0.12964
0.129867
0.130094
0.130322
0.13055
0.130779
0.131008
0.131238
0.131469
0.1317
0.131932
0.132164
0.132398
0.132631
0.132866
0.133101
0.133336
0.133572
0.133809
0.134047
0.134285
0.134523
0.134763
0.135003
0.135243
0.135485
0.135727
0.135969
0.136213
0.136456
0.136701
0.136946
0.137192
0.137439
0.137686
0.137934
0.138182
0.138432
0.138682
0.138932
0.139184
0.139436
0.139688
0.139942
0.140195
0.140448
0.140704
0.14096
0.141217
0.141475
0.141733
0.141992
0.142252
0.142512
0.142774
0.143036
0.143298
0.143562
0.143826
0.144091
0.144356
0.144623
0.14489
0.145158
0.145426
0.145695
0.145966
0.146236
0.146508
0.14678
0.147054
0.147328
0.147602
0.147878
0.148154
0.148431
0.148709
0.148987
0.149267
0.149547
0.149828
0.150109
0.150392
0.150675
0.150959
0.151244
0.15153
0.151817
0.152104
0.152392
0.152681
0.152971
0.153262
0.153553
0.153845
0.154138
0.154432
0.154727
0.155023
0.155319
0.155614
0.155912
0.156211
0.156511
0.156811
0.157113
0.157415
0.157718
0.158022
0.158327
0.158633
0.158939
0.159247
0.159555
0.159864
0.160174
0.160485
0.160797
0.16111
0.161423
0.161738
0.162053
0.16237
0.162687
0.163005
0.163324
0.163644
0.163965
0.164287
0.16461
0.164934
0.165258
0.165584
0.16591
0.166238
0.166566
0.166896
0.167226
0.167557
0.16789
0.168223
0.168557
0.168893
0.169229
0.169566
0.169904
0.170244
0.170584
0.170925
0.171268
0.171611
0.171956
0.172301
0.172648
0.172995
0.173344
0.173694
0.174044
0.174396
0.174749
0.175103
0.175458
0.175815
0.176172
0.176531
0.17689
0.177251
0.177613
0.177976
0.178339
0.178702
0.179069
0.179436
0.179805
0.180175
0.180546
0.180918
0.181292
0.181667
0.182042
0.182417
0.182795
0.183175
0.183555
0.183937
0.18432
0.184704
0.185089
0.185476
0.185863
0.186252
0.186643
0.187034
0.187427
0.187821
0.188216
0.188613
0.18901
0.189409
0.18981
0.190211
0.190614
0.191018
0.191424
0.191831
0.192239
0.192648
0.193058
0.19347
0.193883
0.194298
0.194714
0.195131
0.195549
0.195969
0.19639
0.196812
0.197236
0.197661
0.198087
0.198514
0.198943
0.199373
0.199805
0.200238
0.200672
0.201108
0.201544
0.201983
0.202422
0.202863
0.203305
0.203749
0.204194
0.20464
0.205088
0.205536
0.205987
0.206439
0.206892
0.207346
0.207802
0.208259
0.208718
0.209178
0.20964
0.210103
0.210568
0.211034
0.211501
0.211971
0.212441
0.212914
0.213388
0.213864
0.214341
0.214821
0.215302
0.215786
0.216271
0.216759
0.217249
0.217741
0.218236
0.218734
0.219234
0.219738
0.220244
0.220754
0.221268
0.221786
0.222308
0.222835
0.223366
0.223903
0.224446
0.224994
0.22555
0.226113
0.226683
0.227263
0.227851
0.22845
0.229059
0.22968
0.230314
0.230962
0.231625
0.232304
0.233001
0.233717
0.234453
0.235212
0.235995
0.236804
0.23764
0.238507
0.239407
0.240341
0.241314
0.242326
0.243383
0.244485
0.245638
0.246845
0.248108
0.249433
0.250823
0.252283
0.253817
0.255429
0.257126
0.258912
0.260793
0.262773
0.26486
0.267058
0.269374
0.271815
0.274386
0.277095
0.279947
0.28295
0.28611
0.289433
0.292927
0.296598
0.300452
0.304494
0.30873
0.313166
0.317805
0.32265
0.327706
0.332973
0.338451
0.34414
0.350036
0.356136
0.362433
0.368917
0.375577
0.382398
0.389362
0.396448
0.40363
0.410879
0.41816
0.425434
0.432658
0.439782
0.44675
0.453502
0.459972
0.466088
0.471773
0.476943
0.481511
0.485385
0.488472
0.490672
0.49189
0.492026
0.490986
0.488678
0.485017
0.479929
0.473346
0.46522
0.455516
0.444219
0.431336
0.416898
0.400961
0.383609
0.364954
0.345135
0.324318
0.302693
0.280475
0.257894
0.235192
0.212623
0.190438
0.168882
0.148188
0.128567
0.110204
0.093251
0.077854
0.0641561
0.0519241
0.0413095
0.0322623
0.0246978
0.0185023
0.0135397
0.00965875
0.00670154
0.00451089
0.00293721
0.0018441
0.00111229
0.000641842
0.000352656
0.0001835
8.9863e-05
4.11233e-05
1.74401e-05
6.78948e-06
2.39983e-06
7.59525e-07
2.11536e-07
5.13726e-08
1.07661e-08
1.90221e-09
6.92404e-10
-4.96915e-17
-3.4935e-18
-6.55526e-11
-6.987e-21
0
)
;

boundaryField
{
    fixedWall
    {
        type            calculated;
        value           uniform 0;
    }
    outlet
    {
        type            calculated;
        value           uniform 0;
    }
    defaultFaces
    {
        type            empty;
    }
}


// ************************************************************************* //
