/*--------------------------------*- C++ -*----------------------------------*\
| =========                 |                                                 |
| \\      /  F ield         | OpenFOAM: The Open Source CFD Toolbox           |
|  \\    /   O peration     | Version:  2406                                  |
|   \\  /    A nd           | Website:  www.openfoam.com                      |
|    \\/     M anipulation  |                                                 |
\*---------------------------------------------------------------------------*/
FoamFile
{
    version     2.0;
    format      ascii;
    arch        "LSB;label=32;scalar=64";
    class       volVectorField;
    location    "10.7";
    object      U;
}
// * * * * * * * * * * * * * * * * * * * * * * * * * * * * * * * * * * * * * //

dimensions      [0 1 -1 0 0 0 0];

internalField   nonuniform List<vector> 
1000
(
(-8.91594e-07 0 0)
(-4.23301e-06 0 0)
(-1.08354e-05 0 0)
(-1.99384e-05 0 0)
(-3.09665e-05 0 0)
(-4.35733e-05 0 0)
(-5.75167e-05 0 0)
(-7.26001e-05 0 0)
(-8.86564e-05 0 0)
(-0.000105548 0 0)
(-0.000123157 0 0)
(-0.000141383 0 0)
(-0.000160143 0 0)
(-0.000179361 0 0)
(-0.000198974 0 0)
(-0.000218924 0 0)
(-0.000239161 0 0)
(-0.000259642 0 0)
(-0.000280324 0 0)
(-0.000301174 0 0)
(-0.000322157 0 0)
(-0.000343246 0 0)
(-0.000364412 0 0)
(-0.000385632 0 0)
(-0.000406883 0 0)
(-0.000428144 0 0)
(-0.000449397 0 0)
(-0.000470624 0 0)
(-0.000491809 0 0)
(-0.000512936 0 0)
(-0.000533991 0 0)
(-0.000554963 0 0)
(-0.000575838 0 0)
(-0.000596606 0 0)
(-0.000617256 0 0)
(-0.000637778 0 0)
(-0.000658163 0 0)
(-0.000678403 0 0)
(-0.000698489 0 0)
(-0.000718415 0 0)
(-0.000738173 0 0)
(-0.000757756 0 0)
(-0.00077716 0 0)
(-0.000796378 0 0)
(-0.000815405 0 0)
(-0.000834236 0 0)
(-0.000852867 0 0)
(-0.000871293 0 0)
(-0.00088951 0 0)
(-0.000907516 0 0)
(-0.000925307 0 0)
(-0.00094288 0 0)
(-0.000960232 0 0)
(-0.000977362 0 0)
(-0.000994265 0 0)
(-0.00101094 0 0)
(-0.00102739 0 0)
(-0.0010436 0 0)
(-0.00105959 0 0)
(-0.00107534 0 0)
(-0.00109086 0 0)
(-0.00110614 0 0)
(-0.00112119 0 0)
(-0.001136 0 0)
(-0.00115058 0 0)
(-0.00116492 0 0)
(-0.00117902 0 0)
(-0.00119289 0 0)
(-0.00120652 0 0)
(-0.00121992 0 0)
(-0.00123309 0 0)
(-0.00124602 0 0)
(-0.00125872 0 0)
(-0.00127118 0 0)
(-0.00128342 0 0)
(-0.00129543 0 0)
(-0.00130721 0 0)
(-0.00131876 0 0)
(-0.00133009 0 0)
(-0.00134119 0 0)
(-0.00135208 0 0)
(-0.00136274 0 0)
(-0.00137319 0 0)
(-0.00138342 0 0)
(-0.00139343 0 0)
(-0.00140324 0 0)
(-0.00141283 0 0)
(-0.00142222 0 0)
(-0.0014314 0 0)
(-0.00144037 0 0)
(-0.00144915 0 0)
(-0.00145773 0 0)
(-0.00146611 0 0)
(-0.0014743 0 0)
(-0.00148229 0 0)
(-0.0014901 0 0)
(-0.00149773 0 0)
(-0.00150517 0 0)
(-0.00151242 0 0)
(-0.0015195 0 0)
(-0.00152641 0 0)
(-0.00153314 0 0)
(-0.0015397 0 0)
(-0.0015461 0 0)
(-0.00155233 0 0)
(-0.0015584 0 0)
(-0.00156431 0 0)
(-0.00157006 0 0)
(-0.00157566 0 0)
(-0.00158111 0 0)
(-0.00158641 0 0)
(-0.00159157 0 0)
(-0.00159658 0 0)
(-0.00160145 0 0)
(-0.00160619 0 0)
(-0.00161079 0 0)
(-0.00161526 0 0)
(-0.0016196 0 0)
(-0.00162382 0 0)
(-0.00162791 0 0)
(-0.00163188 0 0)
(-0.00163573 0 0)
(-0.00163947 0 0)
(-0.00164309 0 0)
(-0.0016466 0 0)
(-0.00165001 0 0)
(-0.00165331 0 0)
(-0.0016565 0 0)
(-0.0016596 0 0)
(-0.00166259 0 0)
(-0.00166549 0 0)
(-0.0016683 0 0)
(-0.00167102 0 0)
(-0.00167364 0 0)
(-0.00167619 0 0)
(-0.00167864 0 0)
(-0.00168102 0 0)
(-0.00168331 0 0)
(-0.00168553 0 0)
(-0.00168767 0 0)
(-0.00168974 0 0)
(-0.00169173 0 0)
(-0.00169366 0 0)
(-0.00169552 0 0)
(-0.00169731 0 0)
(-0.00169904 0 0)
(-0.00170071 0 0)
(-0.00170231 0 0)
(-0.00170386 0 0)
(-0.00170536 0 0)
(-0.0017068 0 0)
(-0.00170818 0 0)
(-0.00170952 0 0)
(-0.0017108 0 0)
(-0.00171203 0 0)
(-0.00171321 0 0)
(-0.00171435 0 0)
(-0.00171544 0 0)
(-0.00171649 0 0)
(-0.00171751 0 0)
(-0.00171849 0 0)
(-0.00171942 0 0)
(-0.00172032 0 0)
(-0.00172118 0 0)
(-0.00172201 0 0)
(-0.0017228 0 0)
(-0.00172356 0 0)
(-0.00172429 0 0)
(-0.00172499 0 0)
(-0.00172566 0 0)
(-0.00172631 0 0)
(-0.00172692 0 0)
(-0.00172752 0 0)
(-0.00172808 0 0)
(-0.00172862 0 0)
(-0.00172914 0 0)
(-0.00172964 0 0)
(-0.00173011 0 0)
(-0.00173056 0 0)
(-0.001731 0 0)
(-0.00173141 0 0)
(-0.00173181 0 0)
(-0.00173219 0 0)
(-0.00173255 0 0)
(-0.0017329 0 0)
(-0.00173323 0 0)
(-0.00173354 0 0)
(-0.00173384 0 0)
(-0.00173413 0 0)
(-0.0017344 0 0)
(-0.00173466 0 0)
(-0.00173491 0 0)
(-0.00173515 0 0)
(-0.00173537 0 0)
(-0.00173559 0 0)
(-0.00173579 0 0)
(-0.00173599 0 0)
(-0.00173617 0 0)
(-0.00173635 0 0)
(-0.00173652 0 0)
(-0.00173668 0 0)
(-0.00173683 0 0)
(-0.00173697 0 0)
(-0.00173711 0 0)
(-0.00173724 0 0)
(-0.00173736 0 0)
(-0.00173748 0 0)
(-0.00173759 0 0)
(-0.00173769 0 0)
(-0.00173779 0 0)
(-0.00173789 0 0)
(-0.00173798 0 0)
(-0.00173806 0 0)
(-0.00173814 0 0)
(-0.00173822 0 0)
(-0.00173829 0 0)
(-0.00173836 0 0)
(-0.00173842 0 0)
(-0.00173848 0 0)
(-0.00173854 0 0)
(-0.00173859 0 0)
(-0.00173864 0 0)
(-0.00173869 0 0)
(-0.00173874 0 0)
(-0.00173878 0 0)
(-0.00173882 0 0)
(-0.00173886 0 0)
(-0.0017389 0 0)
(-0.00173893 0 0)
(-0.00173896 0 0)
(-0.00173899 0 0)
(-0.00173902 0 0)
(-0.00173904 0 0)
(-0.00173907 0 0)
(-0.00173909 0 0)
(-0.00173911 0 0)
(-0.00173913 0 0)
(-0.00173915 0 0)
(-0.00173917 0 0)
(-0.00173919 0 0)
(-0.0017392 0 0)
(-0.00173921 0 0)
(-0.00173923 0 0)
(-0.00173924 0 0)
(-0.00173925 0 0)
(-0.00173926 0 0)
(-0.00173927 0 0)
(-0.00173928 0 0)
(-0.00173929 0 0)
(-0.0017393 0 0)
(-0.0017393 0 0)
(-0.00173931 0 0)
(-0.00173932 0 0)
(-0.00173932 0 0)
(-0.00173933 0 0)
(-0.00173933 0 0)
(-0.00173933 0 0)
(-0.00173934 0 0)
(-0.00173934 0 0)
(-0.00173934 0 0)
(-0.00173934 0 0)
(-0.00173934 0 0)
(-0.00173935 0 0)
(-0.00173935 0 0)
(-0.00173935 0 0)
(-0.00173935 0 0)
(-0.00173935 0 0)
(-0.00173935 0 0)
(-0.00173935 0 0)
(-0.00173935 0 0)
(-0.00173935 0 0)
(-0.00173935 0 0)
(-0.00173934 0 0)
(-0.00173935 0 0)
(-0.00173935 0 0)
(-0.00173934 0 0)
(-0.00173935 0 0)
(-0.00173934 0 0)
(-0.00173934 0 0)
(-0.00173934 0 0)
(-0.00173933 0 0)
(-0.00173934 0 0)
(-0.00173933 0 0)
(-0.00173933 0 0)
(-0.00173933 0 0)
(-0.00173932 0 0)
(-0.00173933 0 0)
(-0.00173932 0 0)
(-0.00173932 0 0)
(-0.00173932 0 0)
(-0.00173931 0 0)
(-0.00173932 0 0)
(-0.00173931 0 0)
(-0.00173931 0 0)
(-0.00173931 0 0)
(-0.0017393 0 0)
(-0.00173931 0 0)
(-0.0017393 0 0)
(-0.0017393 0 0)
(-0.0017393 0 0)
(-0.00173929 0 0)
(-0.00173929 0 0)
(-0.00173929 0 0)
(-0.00173928 0 0)
(-0.00173929 0 0)
(-0.00173928 0 0)
(-0.00173928 0 0)
(-0.00173928 0 0)
(-0.00173928 0 0)
(-0.00173927 0 0)
(-0.00173928 0 0)
(-0.00173927 0 0)
(-0.00173927 0 0)
(-0.00173927 0 0)
(-0.00173926 0 0)
(-0.00173927 0 0)
(-0.00173926 0 0)
(-0.00173926 0 0)
(-0.00173926 0 0)
(-0.00173926 0 0)
(-0.00173926 0 0)
(-0.00173925 0 0)
(-0.00173925 0 0)
(-0.00173925 0 0)
(-0.00173925 0 0)
(-0.00173925 0 0)
(-0.00173925 0 0)
(-0.00173924 0 0)
(-0.00173925 0 0)
(-0.00173924 0 0)
(-0.00173924 0 0)
(-0.00173924 0 0)
(-0.00173924 0 0)
(-0.00173924 0 0)
(-0.00173924 0 0)
(-0.00173924 0 0)
(-0.00173923 0 0)
(-0.00173924 0 0)
(-0.00173923 0 0)
(-0.00173924 0 0)
(-0.00173923 0 0)
(-0.00173923 0 0)
(-0.00173923 0 0)
(-0.00173923 0 0)
(-0.00173923 0 0)
(-0.00173923 0 0)
(-0.00173923 0 0)
(-0.00173923 0 0)
(-0.00173923 0 0)
(-0.00173923 0 0)
(-0.00173923 0 0)
(-0.00173923 0 0)
(-0.00173923 0 0)
(-0.00173923 0 0)
(-0.00173923 0 0)
(-0.00173923 0 0)
(-0.00173923 0 0)
(-0.00173923 0 0)
(-0.00173923 0 0)
(-0.00173923 0 0)
(-0.00173923 0 0)
(-0.00173923 0 0)
(-0.00173923 0 0)
(-0.00173923 0 0)
(-0.00173923 0 0)
(-0.00173923 0 0)
(-0.00173923 0 0)
(-0.00173923 0 0)
(-0.00173923 0 0)
(-0.00173923 0 0)
(-0.00173924 0 0)
(-0.00173923 0 0)
(-0.00173923 0 0)
(-0.00173924 0 0)
(-0.00173924 0 0)
(-0.00173924 0 0)
(-0.00173924 0 0)
(-0.00173924 0 0)
(-0.00173924 0 0)
(-0.00173924 0 0)
(-0.00173924 0 0)
(-0.00173924 0 0)
(-0.00173924 0 0)
(-0.00173924 0 0)
(-0.00173924 0 0)
(-0.00173924 0 0)
(-0.00173924 0 0)
(-0.00173924 0 0)
(-0.00173925 0 0)
(-0.00173925 0 0)
(-0.00173925 0 0)
(-0.00173925 0 0)
(-0.00173925 0 0)
(-0.00173925 0 0)
(-0.00173925 0 0)
(-0.00173925 0 0)
(-0.00173925 0 0)
(-0.00173925 0 0)
(-0.00173925 0 0)
(-0.00173925 0 0)
(-0.00173925 0 0)
(-0.00173925 0 0)
(-0.00173926 0 0)
(-0.00173925 0 0)
(-0.00173926 0 0)
(-0.00173926 0 0)
(-0.00173926 0 0)
(-0.00173926 0 0)
(-0.00173926 0 0)
(-0.00173926 0 0)
(-0.00173926 0 0)
(-0.00173926 0 0)
(-0.00173926 0 0)
(-0.00173926 0 0)
(-0.00173926 0 0)
(-0.00173926 0 0)
(-0.00173926 0 0)
(-0.00173926 0 0)
(-0.00173926 0 0)
(-0.00173926 0 0)
(-0.00173926 0 0)
(-0.00173926 0 0)
(-0.00173926 0 0)
(-0.00173926 0 0)
(-0.00173926 0 0)
(-0.00173926 0 0)
(-0.00173926 0 0)
(-0.00173926 0 0)
(-0.00173926 0 0)
(-0.00173926 0 0)
(-0.00173927 0 0)
(-0.00173926 0 0)
(-0.00173926 0 0)
(-0.00173926 0 0)
(-0.00173926 0 0)
(-0.00173927 0 0)
(-0.00173926 0 0)
(-0.00173926 0 0)
(-0.00173926 0 0)
(-0.00173926 0 0)
(-0.00173926 0 0)
(-0.00173927 0 0)
(-0.00173926 0 0)
(-0.00173927 0 0)
(-0.00173926 0 0)
(-0.00173926 0 0)
(-0.00173926 0 0)
(-0.00173926 0 0)
(-0.00173927 0 0)
(-0.00173926 0 0)
(-0.00173927 0 0)
(-0.00173926 0 0)
(-0.00173926 0 0)
(-0.00173926 0 0)
(-0.00173926 0 0)
(-0.00173926 0 0)
(-0.00173926 0 0)
(-0.00173926 0 0)
(-0.00173926 0 0)
(-0.00173926 0 0)
(-0.00173926 0 0)
(-0.00173926 0 0)
(-0.00173926 0 0)
(-0.00173926 0 0)
(-0.00173926 0 0)
(-0.00173926 0 0)
(-0.00173926 0 0)
(-0.00173926 0 0)
(-0.00173926 0 0)
(-0.00173926 0 0)
(-0.00173926 0 0)
(-0.00173926 0 0)
(-0.00173926 0 0)
(-0.00173926 0 0)
(-0.00173926 0 0)
(-0.00173926 0 0)
(-0.00173926 0 0)
(-0.00173926 0 0)
(-0.00173926 0 0)
(-0.00173926 0 0)
(-0.00173926 0 0)
(-0.00173926 0 0)
(-0.00173926 0 0)
(-0.00173926 0 0)
(-0.00173926 0 0)
(-0.00173926 0 0)
(-0.00173926 0 0)
(-0.00173926 0 0)
(-0.00173926 0 0)
(-0.00173926 0 0)
(-0.00173926 0 0)
(-0.00173926 0 0)
(-0.00173926 0 0)
(-0.00173926 0 0)
(-0.00173926 0 0)
(-0.00173926 0 0)
(-0.00173926 0 0)
(-0.00173926 0 0)
(-0.00173926 0 0)
(-0.00173926 0 0)
(-0.00173926 0 0)
(-0.00173926 0 0)
(-0.00173926 0 0)
(-0.00173926 0 0)
(-0.00173926 0 0)
(-0.00173926 0 0)
(-0.00173926 0 0)
(-0.00173926 0 0)
(-0.00173926 0 0)
(-0.00173926 0 0)
(-0.00173926 0 0)
(-0.00173926 0 0)
(-0.00173926 0 0)
(-0.00173926 0 0)
(-0.00173926 0 0)
(-0.00173926 0 0)
(-0.00173926 0 0)
(-0.00173926 0 0)
(-0.00173926 0 0)
(-0.00173926 0 0)
(-0.00173926 0 0)
(-0.00173926 0 0)
(-0.00173926 0 0)
(-0.00173926 0 0)
(-0.00173926 0 0)
(-0.00173926 0 0)
(-0.00173926 0 0)
(-0.00173926 0 0)
(-0.00173926 0 0)
(-0.00173926 0 0)
(-0.00173925 0 0)
(-0.00173926 0 0)
(-0.00173926 0 0)
(-0.00173925 0 0)
(-0.00173926 0 0)
(-0.00173925 0 0)
(-0.00173926 0 0)
(-0.00173925 0 0)
(-0.00173925 0 0)
(-0.00173925 0 0)
(-0.00173925 0 0)
(-0.00173925 0 0)
(-0.00173925 0 0)
(-0.00173925 0 0)
(-0.00173925 0 0)
(-0.00173925 0 0)
(-0.00173925 0 0)
(-0.00173925 0 0)
(-0.00173925 0 0)
(-0.00173925 0 0)
(-0.00173925 0 0)
(-0.00173925 0 0)
(-0.00173925 0 0)
(-0.00173925 0 0)
(-0.00173925 0 0)
(-0.00173925 0 0)
(-0.00173924 0 0)
(-0.00173925 0 0)
(-0.00173924 0 0)
(-0.00173925 0 0)
(-0.00173924 0 0)
(-0.00173925 0 0)
(-0.00173925 0 0)
(-0.00173924 0 0)
(-0.00173925 0 0)
(-0.00173924 0 0)
(-0.00173925 0 0)
(-0.00173924 0 0)
(-0.00173924 0 0)
(-0.00173924 0 0)
(-0.00173924 0 0)
(-0.00173924 0 0)
(-0.00173924 0 0)
(-0.00173924 0 0)
(-0.00173924 0 0)
(-0.00173924 0 0)
(-0.00173924 0 0)
(-0.00173924 0 0)
(-0.00173924 0 0)
(-0.00173924 0 0)
(-0.00173924 0 0)
(-0.00173924 0 0)
(-0.00173924 0 0)
(-0.00173924 0 0)
(-0.00173924 0 0)
(-0.00173924 0 0)
(-0.00173924 0 0)
(-0.00173924 0 0)
(-0.00173924 0 0)
(-0.00173924 0 0)
(-0.00173924 0 0)
(-0.00173924 0 0)
(-0.00173924 0 0)
(-0.00173924 0 0)
(-0.00173924 0 0)
(-0.00173924 0 0)
(-0.00173924 0 0)
(-0.00173924 0 0)
(-0.00173924 0 0)
(-0.00173924 0 0)
(-0.00173924 0 0)
(-0.00173924 0 0)
(-0.00173924 0 0)
(-0.00173924 0 0)
(-0.00173924 0 0)
(-0.00173924 0 0)
(-0.00173924 0 0)
(-0.00173924 0 0)
(-0.00173924 0 0)
(-0.00173924 0 0)
(-0.00173924 0 0)
(-0.00173924 0 0)
(-0.00173924 0 0)
(-0.00173924 0 0)
(-0.00173924 0 0)
(-0.00173924 0 0)
(-0.00173924 0 0)
(-0.00173924 0 0)
(-0.00173924 0 0)
(-0.00173924 0 0)
(-0.00173924 0 0)
(-0.00173924 0 0)
(-0.00173924 0 0)
(-0.00173924 0 0)
(-0.00173924 0 0)
(-0.00173924 0 0)
(-0.00173924 0 0)
(-0.00173924 0 0)
(-0.00173924 0 0)
(-0.00173924 0 0)
(-0.00173924 0 0)
(-0.00173924 0 0)
(-0.00173924 0 0)
(-0.00173925 0 0)
(-0.00173924 0 0)
(-0.00173925 0 0)
(-0.00173925 0 0)
(-0.00173925 0 0)
(-0.00173924 0 0)
(-0.00173925 0 0)
(-0.00173925 0 0)
(-0.00173925 0 0)
(-0.00173925 0 0)
(-0.00173925 0 0)
(-0.00173925 0 0)
(-0.00173925 0 0)
(-0.00173925 0 0)
(-0.00173925 0 0)
(-0.00173925 0 0)
(-0.00173924 0 0)
(-0.00173925 0 0)
(-0.00173925 0 0)
(-0.00173924 0 0)
(-0.00173924 0 0)
(-0.00173925 0 0)
(-0.00173924 0 0)
(-0.00173924 0 0)
(-0.00173924 0 0)
(-0.00173924 0 0)
(-0.00173924 0 0)
(-0.00173924 0 0)
(-0.00173924 0 0)
(-0.00173924 0 0)
(-0.00173924 0 0)
(-0.00173924 0 0)
(-0.00173924 0 0)
(-0.00173924 0 0)
(-0.00173924 0 0)
(-0.00173923 0 0)
(-0.00173924 0 0)
(-0.00173923 0 0)
(-0.00173924 0 0)
(-0.00173923 0 0)
(-0.00173923 0 0)
(-0.00173923 0 0)
(-0.00173923 0 0)
(-0.00173923 0 0)
(-0.00173923 0 0)
(-0.00173923 0 0)
(-0.00173923 0 0)
(-0.00173923 0 0)
(-0.00173923 0 0)
(-0.00173922 0 0)
(-0.00173923 0 0)
(-0.00173922 0 0)
(-0.00173922 0 0)
(-0.00173922 0 0)
(-0.00173922 0 0)
(-0.00173922 0 0)
(-0.00173922 0 0)
(-0.00173922 0 0)
(-0.00173921 0 0)
(-0.00173922 0 0)
(-0.00173922 0 0)
(-0.00173921 0 0)
(-0.00173922 0 0)
(-0.00173921 0 0)
(-0.00173921 0 0)
(-0.00173921 0 0)
(-0.00173921 0 0)
(-0.00173921 0 0)
(-0.00173921 0 0)
(-0.00173921 0 0)
(-0.0017392 0 0)
(-0.00173921 0 0)
(-0.0017392 0 0)
(-0.0017392 0 0)
(-0.0017392 0 0)
(-0.0017392 0 0)
(-0.0017392 0 0)
(-0.0017392 0 0)
(-0.0017392 0 0)
(-0.0017392 0 0)
(-0.0017392 0 0)
(-0.0017392 0 0)
(-0.0017392 0 0)
(-0.0017392 0 0)
(-0.0017392 0 0)
(-0.0017392 0 0)
(-0.0017392 0 0)
(-0.0017392 0 0)
(-0.0017392 0 0)
(-0.0017392 0 0)
(-0.0017392 0 0)
(-0.0017392 0 0)
(-0.0017392 0 0)
(-0.0017392 0 0)
(-0.0017392 0 0)
(-0.0017392 0 0)
(-0.0017392 0 0)
(-0.0017392 0 0)
(-0.0017392 0 0)
(-0.0017392 0 0)
(-0.0017392 0 0)
(-0.0017392 0 0)
(-0.0017392 0 0)
(-0.0017392 0 0)
(-0.0017392 0 0)
(-0.0017392 0 0)
(-0.0017392 0 0)
(-0.00173921 0 0)
(-0.0017392 0 0)
(-0.00173921 0 0)
(-0.00173921 0 0)
(-0.00173921 0 0)
(-0.00173921 0 0)
(-0.00173921 0 0)
(-0.00173921 0 0)
(-0.00173921 0 0)
(-0.00173921 0 0)
(-0.00173922 0 0)
(-0.00173922 0 0)
(-0.00173922 0 0)
(-0.00173922 0 0)
(-0.00173922 0 0)
(-0.00173922 0 0)
(-0.00173922 0 0)
(-0.00173922 0 0)
(-0.00173923 0 0)
(-0.00173923 0 0)
(-0.00173923 0 0)
(-0.00173923 0 0)
(-0.00173923 0 0)
(-0.00173923 0 0)
(-0.00173923 0 0)
(-0.00173924 0 0)
(-0.00173924 0 0)
(-0.00173924 0 0)
(-0.00173924 0 0)
(-0.00173924 0 0)
(-0.00173925 0 0)
(-0.00173925 0 0)
(-0.00173925 0 0)
(-0.00173925 0 0)
(-0.00173925 0 0)
(-0.00173926 0 0)
(-0.00173926 0 0)
(-0.00173926 0 0)
(-0.00173927 0 0)
(-0.00173927 0 0)
(-0.00173927 0 0)
(-0.00173927 0 0)
(-0.00173928 0 0)
(-0.00173928 0 0)
(-0.00173929 0 0)
(-0.00173929 0 0)
(-0.00173929 0 0)
(-0.0017393 0 0)
(-0.00173931 0 0)
(-0.00173931 0 0)
(-0.00173932 0 0)
(-0.00173933 0 0)
(-0.00173934 0 0)
(-0.00173934 0 0)
(-0.00173935 0 0)
(-0.00173936 0 0)
(-0.00173938 0 0)
(-0.00173939 0 0)
(-0.0017394 0 0)
(-0.00173942 0 0)
(-0.00173943 0 0)
(-0.00173945 0 0)
(-0.00173947 0 0)
(-0.00173949 0 0)
(-0.00173952 0 0)
(-0.00173954 0 0)
(-0.00173957 0 0)
(-0.0017396 0 0)
(-0.00173963 0 0)
(-0.00173967 0 0)
(-0.00173971 0 0)
(-0.00173975 0 0)
(-0.00173979 0 0)
(-0.00173984 0 0)
(-0.0017399 0 0)
(-0.00173996 0 0)
(-0.00174002 0 0)
(-0.00174009 0 0)
(-0.00174016 0 0)
(-0.00174024 0 0)
(-0.00174033 0 0)
(-0.00174043 0 0)
(-0.00174053 0 0)
(-0.00174064 0 0)
(-0.00174076 0 0)
(-0.00174089 0 0)
(-0.00174103 0 0)
(-0.00174118 0 0)
(-0.00174134 0 0)
(-0.00174151 0 0)
(-0.0017417 0 0)
(-0.0017419 0 0)
(-0.00174212 0 0)
(-0.00174235 0 0)
(-0.0017426 0 0)
(-0.00174287 0 0)
(-0.00174316 0 0)
(-0.00174347 0 0)
(-0.00174381 0 0)
(-0.00174417 0 0)
(-0.00174455 0 0)
(-0.00174496 0 0)
(-0.0017454 0 0)
(-0.00174587 0 0)
(-0.00174637 0 0)
(-0.00174691 0 0)
(-0.00174748 0 0)
(-0.00174809 0 0)
(-0.00174875 0 0)
(-0.00174944 0 0)
(-0.00175019 0 0)
(-0.00175098 0 0)
(-0.00175182 0 0)
(-0.00175272 0 0)
(-0.00175367 0 0)
(-0.00175469 0 0)
(-0.00175577 0 0)
(-0.00175691 0 0)
(-0.00175813 0 0)
(-0.00175942 0 0)
(-0.00176079 0 0)
(-0.00176224 0 0)
(-0.00176378 0 0)
(-0.00176541 0 0)
(-0.00176713 0 0)
(-0.00176895 0 0)
(-0.00177088 0 0)
(-0.00177292 0 0)
(-0.00177507 0 0)
(-0.00177734 0 0)
(-0.00177974 0 0)
(-0.00178226 0 0)
(-0.00178493 0 0)
(-0.00178773 0 0)
(-0.00179068 0 0)
(-0.00179379 0 0)
(-0.00179706 0 0)
(-0.00180049 0 0)
(-0.0018041 0 0)
(-0.00180789 0 0)
(-0.00181186 0 0)
(-0.00181603 0 0)
(-0.0018204 0 0)
(-0.00182498 0 0)
(-0.00182978 0 0)
(-0.00183479 0 0)
(-0.00184004 0 0)
(-0.00184553 0 0)
(-0.00185126 0 0)
(-0.00185724 0 0)
(-0.00186349 0 0)
(-0.00187 0 0)
(-0.00187679 0 0)
(-0.00188387 0 0)
(-0.00189124 0 0)
(-0.0018989 0 0)
(-0.00190688 0 0)
(-0.00191517 0 0)
(-0.00192378 0 0)
(-0.00193272 0 0)
(-0.001942 0 0)
(-0.00195163 0 0)
(-0.0019616 0 0)
(-0.00197193 0 0)
(-0.00198263 0 0)
(-0.0019937 0 0)
(-0.00200514 0 0)
(-0.00201697 0 0)
(-0.00202919 0 0)
(-0.0020418 0 0)
(-0.00205481 0 0)
(-0.00206822 0 0)
(-0.00208204 0 0)
(-0.00209626 0 0)
(-0.0021109 0 0)
(-0.00212596 0 0)
(-0.00214143 0 0)
(-0.00215732 0 0)
(-0.00217363 0 0)
(-0.00219035 0 0)
(-0.0022075 0 0)
(-0.00222506 0 0)
(-0.00224304 0 0)
(-0.00226143 0 0)
(-0.00228023 0 0)
(-0.00229943 0 0)
(-0.00231903 0 0)
(-0.00233901 0 0)
(-0.00235939 0 0)
(-0.00238013 0 0)
(-0.00240125 0 0)
(-0.00242271 0 0)
(-0.00244452 0 0)
(-0.00246666 0 0)
(-0.00248911 0 0)
(-0.00251186 0 0)
(-0.0025349 0 0)
(-0.0025582 0 0)
(-0.00258174 0 0)
(-0.0026055 0 0)
(-0.00262947 0 0)
(-0.00265361 0 0)
(-0.0026779 0 0)
(-0.00270231 0 0)
(-0.00272682 0 0)
(-0.00275139 0 0)
(-0.00277598 0 0)
(-0.00280057 0 0)
(-0.00282513 0 0)
(-0.00284959 0 0)
(-0.00287394 0 0)
(-0.00289813 0 0)
(-0.0029221 0 0)
(-0.00294581 0 0)
(-0.00296922 0 0)
(-0.00299227 0 0)
(-0.0030149 0 0)
(-0.00303706 0 0)
(-0.00305868 0 0)
(-0.0030797 0 0)
(-0.00310005 0 0)
(-0.00311966 0 0)
(-0.00313846 0 0)
(-0.00315637 0 0)
(-0.00317331 0 0)
(-0.00318924 0 0)
(-0.00320409 0 0)
(-0.00321772 0 0)
(-0.0032299 0 0)
(-0.00324054 0 0)
(-0.0032496 0 0)
(-0.00325704 0 0)
(-0.00326279 0 0)
(-0.0032666 0 0)
(-0.00326833 0 0)
(-0.00326787 0 0)
(-0.00326498 0 0)
(-0.00325954 0 0)
(-0.00325136 0 0)
(-0.00324023 0 0)
(-0.003226 0 0)
(-0.00320841 0 0)
(-0.00318727 0 0)
(-0.00316232 0 0)
(-0.00313334 0 0)
(-0.00310007 0 0)
(-0.00306223 0 0)
(-0.00301955 0 0)
(-0.00297175 0 0)
(-0.00291855 0 0)
(-0.00285967 0 0)
(-0.00279482 0 0)
(-0.00272373 0 0)
(-0.00264612 0 0)
(-0.00256193 0 0)
(-0.00247136 0 0)
(-0.00237427 0 0)
(-0.0022664 0 0)
(-0.00213843 0 0)
(-0.00201109 0 0)
)
;

boundaryField
{
    fixedWall
    {
        type            fixedValue;
        value           uniform (0 0 0);
    }
    outlet
    {
        type            pressureInletOutletVelocity;
        value           uniform (-0.00201109 0 0);
    }
    defaultFaces
    {
        type            empty;
    }
}


// ************************************************************************* //
