/*--------------------------------*- C++ -*----------------------------------*\
| =========                 |                                                 |
| \\      /  F ield         | OpenFOAM: The Open Source CFD Toolbox           |
|  \\    /   O peration     | Version:  2406                                  |
|   \\  /    A nd           | Website:  www.openfoam.com                      |
|    \\/     M anipulation  |                                                 |
\*---------------------------------------------------------------------------*/
FoamFile
{
    version     2.0;
    format      ascii;
    arch        "LSB;label=32;scalar=64";
    class       volScalarField;
    location    "3.8";
    object      CO2;
}
// * * * * * * * * * * * * * * * * * * * * * * * * * * * * * * * * * * * * * //

dimensions      [0 0 0 0 0 0 0];

internalField   nonuniform List<scalar> 
1000
(
0.0709258
0.0709258
0.0709258
0.0709258
0.0709258
0.0709258
0.0709258
0.0709258
0.0709258
0.0709258
0.0709258
0.0709259
0.0709259
0.0709259
0.0709259
0.0709259
0.0709259
0.0709259
0.070926
0.070926
0.070926
0.070926
0.070926
0.070926
0.0709261
0.0709261
0.0709261
0.0709261
0.0709261
0.0709261
0.0709261
0.0709262
0.0709262
0.0709262
0.0709262
0.0709262
0.0709262
0.0709262
0.0709263
0.0709263
0.0709263
0.0709263
0.0709263
0.0709263
0.0709263
0.0709263
0.0709263
0.0709263
0.0709264
0.0709264
0.0709264
0.0709264
0.0709264
0.0709264
0.0709264
0.0709264
0.0709264
0.0709264
0.0709264
0.0709264
0.0709264
0.0709264
0.0709264
0.0709264
0.0709264
0.0709264
0.0709264
0.0709264
0.0709264
0.0709264
0.0709264
0.0709264
0.0709264
0.0709264
0.0709264
0.0709264
0.0709264
0.0709264
0.0709264
0.0709264
0.0709264
0.0709264
0.0709264
0.0709264
0.0709264
0.0709264
0.0709264
0.0709264
0.0709264
0.0709264
0.0709264
0.0709264
0.0709264
0.0709264
0.0709264
0.0709264
0.0709264
0.0709264
0.0709264
0.0709264
0.0709264
0.0709264
0.0709264
0.0709264
0.0709264
0.0709264
0.0709264
0.0709264
0.0709264
0.0709264
0.0709264
0.0709264
0.0709264
0.0709264
0.0709264
0.0709264
0.0709264
0.0709264
0.0709264
0.0709264
0.0709264
0.0709264
0.0709264
0.0709264
0.0709264
0.0709264
0.0709264
0.0709264
0.0709264
0.0709264
0.0709264
0.0709264
0.0709264
0.0709264
0.0709264
0.0709264
0.0709264
0.0709264
0.0709264
0.0709264
0.0709264
0.0709264
0.0709264
0.0709264
0.0709264
0.0709264
0.0709264
0.0709264
0.0709264
0.0709264
0.0709264
0.0709264
0.0709264
0.0709264
0.0709264
0.0709264
0.0709264
0.0709264
0.0709264
0.0709264
0.0709264
0.0709264
0.0709264
0.0709264
0.0709264
0.0709264
0.0709264
0.0709264
0.0709264
0.0709264
0.0709264
0.0709264
0.0709264
0.0709264
0.0709264
0.0709264
0.0709264
0.0709264
0.0709264
0.0709264
0.0709264
0.0709264
0.0709264
0.0709264
0.0709264
0.0709264
0.0709264
0.0709264
0.0709264
0.0709264
0.0709264
0.0709263
0.0709263
0.0709263
0.0709263
0.0709263
0.0709263
0.0709263
0.0709263
0.0709263
0.0709263
0.0709263
0.0709263
0.0709263
0.0709263
0.0709263
0.0709263
0.0709263
0.0709263
0.0709263
0.0709263
0.0709263
0.0709263
0.0709263
0.0709263
0.0709263
0.0709263
0.0709263
0.0709263
0.0709263
0.0709263
0.0709263
0.0709263
0.0709263
0.0709263
0.0709263
0.0709263
0.0709263
0.0709263
0.0709263
0.0709263
0.0709263
0.0709263
0.0709263
0.0709263
0.0709263
0.0709263
0.0709263
0.0709263
0.0709263
0.0709263
0.0709263
0.0709263
0.0709263
0.0709263
0.0709263
0.0709263
0.0709263
0.0709263
0.0709263
0.0709263
0.0709263
0.0709263
0.0709263
0.0709263
0.0709263
0.0709263
0.0709263
0.0709262
0.0709262
0.0709262
0.0709262
0.0709262
0.0709262
0.0709262
0.0709262
0.0709262
0.0709262
0.0709262
0.0709262
0.0709262
0.0709262
0.0709262
0.0709262
0.0709262
0.0709262
0.0709262
0.0709262
0.0709262
0.0709262
0.0709262
0.0709262
0.0709262
0.0709262
0.0709262
0.0709262
0.0709262
0.0709262
0.0709262
0.0709262
0.0709262
0.0709262
0.0709262
0.0709262
0.0709262
0.0709262
0.0709262
0.0709262
0.0709262
0.0709262
0.0709262
0.0709262
0.0709262
0.0709262
0.0709262
0.0709262
0.0709261
0.0709261
0.0709261
0.0709261
0.0709261
0.0709261
0.0709261
0.0709261
0.0709261
0.0709261
0.0709261
0.0709261
0.0709261
0.0709261
0.0709261
0.0709261
0.0709261
0.0709261
0.0709261
0.0709261
0.0709261
0.0709261
0.0709261
0.0709261
0.0709261
0.0709261
0.0709261
0.0709261
0.0709261
0.0709261
0.0709261
0.0709261
0.0709261
0.0709261
0.0709261
0.0709261
0.070926
0.070926
0.070926
0.070926
0.070926
0.070926
0.070926
0.070926
0.070926
0.070926
0.070926
0.070926
0.070926
0.070926
0.070926
0.070926
0.070926
0.070926
0.070926
0.070926
0.070926
0.070926
0.070926
0.070926
0.070926
0.070926
0.070926
0.070926
0.0709259
0.0709259
0.0709259
0.0709259
0.0709259
0.0709259
0.0709259
0.0709259
0.0709259
0.0709259
0.0709259
0.0709259
0.0709259
0.0709259
0.0709259
0.0709259
0.0709259
0.0709259
0.0709259
0.0709259
0.0709259
0.0709259
0.0709259
0.0709258
0.0709258
0.0709258
0.0709258
0.0709258
0.0709258
0.0709258
0.0709258
0.0709258
0.0709258
0.0709258
0.0709258
0.0709258
0.0709258
0.0709258
0.0709258
0.0709258
0.0709258
0.0709257
0.0709257
0.0709257
0.0709257
0.0709257
0.0709257
0.0709257
0.0709257
0.0709257
0.0709257
0.0709257
0.0709257
0.0709257
0.0709257
0.0709257
0.0709257
0.0709256
0.0709256
0.0709256
0.0709256
0.0709256
0.0709256
0.0709256
0.0709256
0.0709256
0.0709256
0.0709256
0.0709256
0.0709256
0.0709255
0.0709255
0.0709255
0.0709255
0.0709255
0.0709255
0.0709255
0.0709255
0.0709255
0.0709255
0.0709255
0.0709254
0.0709254
0.0709254
0.0709254
0.0709254
0.0709254
0.0709254
0.0709254
0.0709254
0.0709253
0.0709253
0.0709253
0.0709253
0.0709253
0.0709253
0.0709253
0.0709253
0.0709253
0.0709252
0.0709252
0.0709252
0.0709252
0.0709252
0.0709252
0.0709252
0.0709252
0.0709251
0.0709251
0.0709251
0.0709251
0.0709251
0.0709251
0.070925
0.070925
0.070925
0.070925
0.070925
0.070925
0.0709249
0.0709249
0.0709249
0.0709249
0.0709249
0.0709249
0.0709248
0.0709248
0.0709248
0.0709248
0.0709247
0.0709247
0.0709247
0.0709247
0.0709247
0.0709246
0.0709246
0.0709246
0.0709246
0.0709245
0.0709245
0.0709245
0.0709245
0.0709244
0.0709244
0.0709244
0.0709243
0.0709243
0.0709243
0.0709242
0.0709242
0.0709242
0.0709241
0.0709241
0.0709241
0.070924
0.070924
0.0709239
0.0709239
0.0709239
0.0709238
0.0709238
0.0709237
0.0709237
0.0709236
0.0709236
0.0709235
0.0709235
0.0709234
0.0709234
0.0709233
0.0709232
0.0709232
0.0709231
0.070923
0.070923
0.0709229
0.0709228
0.0709227
0.0709226
0.0709226
0.0709225
0.0709224
0.0709223
0.0709222
0.0709221
0.070922
0.0709218
0.0709217
0.0709216
0.0709215
0.0709213
0.0709212
0.070921
0.0709208
0.0709207
0.0709205
0.0709203
0.0709201
0.0709198
0.0709196
0.0709194
0.0709191
0.0709188
0.0709185
0.0709181
0.0709178
0.0709174
0.0709169
0.0709165
0.070916
0.0709154
0.0709148
0.0709141
0.0709133
0.0709124
0.0709114
0.0709103
0.0709089
0.0709074
0.0709056
0.0709034
0.0709009
0.0708977
0.0708938
0.0708887
0.0708821
0.070873
0.0708602
0.0708413
0.070811
0.0707552
0.0706287
0.0702767
0.0691377
0.0650389
0.0465928
0.0231073
0.0112107
0.00544261
0.00266228
0.00131212
0.000650239
0.000323336
0.000161089
8.03324e-05
4.00764e-05
1.99952e-05
9.97549e-06
4.97608e-06
2.48187e-06
1.2377e-06
6.17189e-07
3.07769e-07
1.53486e-07
7.65902e-08
3.82357e-08
1.91303e-08
9.61768e-09
4.86929e-09
2.48815e-09
1.40485e-09
9.77443e-10
5.82011e-10
3.70897e-10
2.61556e-10
2.05784e-10
1.85453e-10
1.72154e-10
1.64033e-10
1.59697e-10
1.57021e-10
1.55429e-10
1.54478e-10
1.54072e-10
1.53874e-10
1.53698e-10
1.53617e-10
1.53576e-10
1.53549e-10
1.53534e-10
1.53525e-10
1.53521e-10
1.53518e-10
1.53517e-10
1.53517e-10
1.53517e-10
1.53517e-10
1.53517e-10
1.53518e-10
1.53518e-10
1.53519e-10
1.53519e-10
1.5352e-10
1.5352e-10
1.53521e-10
1.53521e-10
1.53522e-10
1.53522e-10
1.53523e-10
1.53524e-10
1.53524e-10
1.53524e-10
1.53525e-10
1.53525e-10
1.53526e-10
1.53527e-10
1.53527e-10
1.53528e-10
1.53528e-10
1.53529e-10
1.5353e-10
1.5353e-10
1.53531e-10
1.53531e-10
1.53532e-10
1.53532e-10
1.53533e-10
1.53533e-10
1.53534e-10
1.53534e-10
1.53535e-10
1.53536e-10
1.53536e-10
1.53537e-10
1.53537e-10
1.53538e-10
1.53538e-10
1.53539e-10
1.53539e-10
1.5354e-10
1.53541e-10
1.53541e-10
1.53542e-10
1.53542e-10
1.53543e-10
1.53544e-10
1.53544e-10
1.53545e-10
1.53545e-10
1.53546e-10
1.53546e-10
1.53547e-10
1.53548e-10
1.53548e-10
1.53549e-10
1.53549e-10
1.5355e-10
1.53551e-10
1.53551e-10
1.53551e-10
1.53552e-10
1.53552e-10
1.53553e-10
1.53554e-10
1.53554e-10
1.53555e-10
1.53555e-10
1.53556e-10
1.53557e-10
1.53557e-10
1.53557e-10
1.53558e-10
1.53559e-10
1.53559e-10
1.5356e-10
1.5356e-10
1.53561e-10
1.53561e-10
1.53562e-10
1.53563e-10
1.53563e-10
1.53564e-10
1.53564e-10
1.53565e-10
1.53565e-10
1.53566e-10
1.53566e-10
1.53567e-10
1.53568e-10
1.53568e-10
1.53569e-10
1.53569e-10
1.5357e-10
1.5357e-10
1.53571e-10
1.53571e-10
1.53572e-10
1.53572e-10
1.53573e-10
1.53574e-10
1.53574e-10
1.53575e-10
1.53575e-10
1.53576e-10
1.53577e-10
1.53577e-10
1.53578e-10
1.53579e-10
1.53579e-10
1.5358e-10
1.53581e-10
1.53581e-10
1.53582e-10
1.53582e-10
1.53583e-10
1.53583e-10
1.53584e-10
1.53585e-10
1.53585e-10
1.53586e-10
1.53586e-10
1.53587e-10
1.53588e-10
1.53588e-10
1.53589e-10
1.53589e-10
1.5359e-10
1.5359e-10
1.53591e-10
1.53591e-10
1.53592e-10
1.53593e-10
1.53593e-10
1.53594e-10
1.53594e-10
1.53595e-10
1.53595e-10
1.53596e-10
1.53596e-10
1.53597e-10
1.53598e-10
1.53598e-10
1.53599e-10
1.53599e-10
1.536e-10
1.53601e-10
1.53601e-10
1.53602e-10
1.53602e-10
1.53603e-10
1.53603e-10
1.53604e-10
1.53605e-10
1.53605e-10
1.53606e-10
1.53607e-10
1.53607e-10
1.53608e-10
1.53608e-10
1.53609e-10
1.5361e-10
1.5361e-10
1.53611e-10
1.53611e-10
1.53612e-10
1.53612e-10
1.53613e-10
1.53613e-10
1.53614e-10
1.53615e-10
1.53615e-10
1.53616e-10
1.53616e-10
1.53617e-10
1.53617e-10
1.53618e-10
1.53618e-10
1.53619e-10
1.5362e-10
1.53621e-10
1.53621e-10
1.53622e-10
1.53622e-10
1.53623e-10
1.53623e-10
1.53624e-10
1.53624e-10
1.53625e-10
1.53625e-10
1.53626e-10
1.53627e-10
1.53627e-10
1.53628e-10
1.53628e-10
1.53629e-10
1.5363e-10
1.5363e-10
1.53631e-10
1.53631e-10
1.53632e-10
1.53633e-10
1.53633e-10
1.53634e-10
1.53634e-10
1.53635e-10
1.53636e-10
1.53636e-10
1.53637e-10
1.53637e-10
1.53638e-10
1.53638e-10
1.53639e-10
1.53639e-10
1.5364e-10
1.53641e-10
1.53641e-10
1.53642e-10
1.53642e-10
1.53643e-10
1.53644e-10
1.53644e-10
1.53645e-10
1.53645e-10
1.53646e-10
1.53647e-10
1.53647e-10
1.53648e-10
1.53648e-10
1.53649e-10
1.53649e-10
1.5365e-10
1.53651e-10
1.53651e-10
1.53652e-10
1.53652e-10
1.53653e-10
1.53653e-10
1.53654e-10
1.53655e-10
1.53655e-10
1.53656e-10
1.53656e-10
1.53657e-10
1.53658e-10
1.53658e-10
1.53659e-10
1.53659e-10
1.5366e-10
1.53661e-10
1.53661e-10
1.53662e-10
1.53663e-10
1.53663e-10
1.53664e-10
1.53664e-10
1.53665e-10
1.53665e-10
1.53666e-10
1.53667e-10
1.53667e-10
1.53668e-10
1.53668e-10
1.53669e-10
1.5367e-10
1.5367e-10
1.53671e-10
1.53671e-10
1.53672e-10
1.53673e-10
1.53673e-10
1.53674e-10
1.53674e-10
1.53675e-10
1.53675e-10
1.53676e-10
1.53676e-10
1.53677e-10
1.53677e-10
1.53678e-10
1.53679e-10
1.53679e-10
1.5368e-10
1.53681e-10
1.53681e-10
1.53682e-10
1.53683e-10
1.53683e-10
1.53684e-10
1.53685e-10
1.53685e-10
1.53686e-10
1.53686e-10
1.53687e-10
1.53688e-10
1.53688e-10
1.53689e-10
1.5369e-10
1.5369e-10
1.53691e-10
1.53691e-10
1.53692e-10
1.53692e-10
1.53693e-10
1.53693e-10
1.53694e-10
1.53695e-10
1.53695e-10
1.53696e-10
1.53696e-10
1.53697e-10
1.53697e-10
1.53698e-10
1.53699e-10
1.53699e-10
1.537e-10
1.537e-10
1.53701e-10
1.53701e-10
1.53702e-10
1.53703e-10
1.53703e-10
1.53704e-10
1.53704e-10
1.53705e-10
1.53706e-10
1.53706e-10
1.53707e-10
1.53707e-10
1.53708e-10
1.53709e-10
1.53709e-10
1.5371e-10
1.5371e-10
1.53711e-10
1.53712e-10
1.53712e-10
1.53713e-10
1.53713e-10
1.53714e-10
1.53715e-10
)
;

boundaryField
{
    fixedWall
    {
        type            zeroGradient;
    }
    outlet
    {
        type            inletOutlet;
        inletValue      uniform 0;
        value           uniform 1.53715e-10;
    }
    defaultFaces
    {
        type            empty;
    }
}


// ************************************************************************* //
