/*--------------------------------*- C++ -*----------------------------------*\
| =========                 |                                                 |
| \\      /  F ield         | OpenFOAM: The Open Source CFD Toolbox           |
|  \\    /   O peration     | Version:  2406                                  |
|   \\  /    A nd           | Website:  www.openfoam.com                      |
|    \\/     M anipulation  |                                                 |
\*---------------------------------------------------------------------------*/
FoamFile
{
    version     2.0;
    format      ascii;
    arch        "LSB;label=32;scalar=64";
    class       volScalarField;
    location    "3.8";
    object      H2O;
}
// * * * * * * * * * * * * * * * * * * * * * * * * * * * * * * * * * * * * * //

dimensions      [0 0 0 0 0 0 0];

internalField   nonuniform List<scalar> 
1000
(
0.0580663
0.0580663
0.0580663
0.0580663
0.0580663
0.0580663
0.0580663
0.0580663
0.0580663
0.0580664
0.0580664
0.0580664
0.0580664
0.0580664
0.0580664
0.0580664
0.0580664
0.0580664
0.0580665
0.0580665
0.0580665
0.0580665
0.0580665
0.0580665
0.0580665
0.0580666
0.0580666
0.0580666
0.0580666
0.0580666
0.0580666
0.0580666
0.0580666
0.0580666
0.0580667
0.0580667
0.0580667
0.0580667
0.0580667
0.0580667
0.0580667
0.0580667
0.0580667
0.0580667
0.0580668
0.0580668
0.0580668
0.0580668
0.0580668
0.0580668
0.0580668
0.0580668
0.0580668
0.0580668
0.0580668
0.0580668
0.0580668
0.0580668
0.0580668
0.0580668
0.0580668
0.0580668
0.0580668
0.0580668
0.0580668
0.0580668
0.0580668
0.0580669
0.0580669
0.0580669
0.0580669
0.0580669
0.0580669
0.0580669
0.0580669
0.0580669
0.0580669
0.0580669
0.0580669
0.0580669
0.0580669
0.0580669
0.0580669
0.0580669
0.0580669
0.0580669
0.0580669
0.0580669
0.0580669
0.0580669
0.0580669
0.0580669
0.0580669
0.0580669
0.0580669
0.0580669
0.0580669
0.0580669
0.0580669
0.0580669
0.0580669
0.0580669
0.0580669
0.0580669
0.0580669
0.0580669
0.0580669
0.0580668
0.0580668
0.0580668
0.0580668
0.0580668
0.0580668
0.0580668
0.0580668
0.0580668
0.0580668
0.0580668
0.0580668
0.0580668
0.0580668
0.0580668
0.0580668
0.0580668
0.0580668
0.0580668
0.0580668
0.0580668
0.0580668
0.0580668
0.0580668
0.0580668
0.0580668
0.0580668
0.0580668
0.0580668
0.0580668
0.0580668
0.0580668
0.0580668
0.0580668
0.0580668
0.0580668
0.0580668
0.0580668
0.0580668
0.0580668
0.0580668
0.0580668
0.0580668
0.0580668
0.0580668
0.0580668
0.0580668
0.0580668
0.0580668
0.0580668
0.0580668
0.0580668
0.0580668
0.0580668
0.0580668
0.0580668
0.0580668
0.0580668
0.0580668
0.0580668
0.0580668
0.0580668
0.0580668
0.0580668
0.0580668
0.0580668
0.0580668
0.0580668
0.0580668
0.0580668
0.0580668
0.0580668
0.0580668
0.0580668
0.0580668
0.0580668
0.0580668
0.0580668
0.0580668
0.0580668
0.0580668
0.0580668
0.0580668
0.0580668
0.0580668
0.0580668
0.0580668
0.0580668
0.0580668
0.0580668
0.0580668
0.0580668
0.0580668
0.0580668
0.0580668
0.0580668
0.0580668
0.0580668
0.0580668
0.0580668
0.0580668
0.0580668
0.0580668
0.0580668
0.0580668
0.0580668
0.0580668
0.0580668
0.0580668
0.0580668
0.0580667
0.0580667
0.0580667
0.0580667
0.0580667
0.0580667
0.0580667
0.0580667
0.0580667
0.0580667
0.0580667
0.0580667
0.0580667
0.0580667
0.0580667
0.0580667
0.0580667
0.0580667
0.0580667
0.0580667
0.0580667
0.0580667
0.0580667
0.0580667
0.0580667
0.0580667
0.0580667
0.0580667
0.0580667
0.0580667
0.0580667
0.0580667
0.0580667
0.0580667
0.0580667
0.0580667
0.0580667
0.0580667
0.0580667
0.0580667
0.0580667
0.0580667
0.0580667
0.0580667
0.0580667
0.0580667
0.0580667
0.0580667
0.0580667
0.0580667
0.0580667
0.0580667
0.0580667
0.0580667
0.0580667
0.0580667
0.0580667
0.0580667
0.0580667
0.0580667
0.0580667
0.0580667
0.0580667
0.0580667
0.0580667
0.0580667
0.0580667
0.0580667
0.0580667
0.0580667
0.0580666
0.0580666
0.0580666
0.0580666
0.0580666
0.0580666
0.0580666
0.0580666
0.0580666
0.0580666
0.0580666
0.0580666
0.0580666
0.0580666
0.0580666
0.0580666
0.0580666
0.0580666
0.0580666
0.0580666
0.0580666
0.0580666
0.0580666
0.0580666
0.0580666
0.0580666
0.0580666
0.0580666
0.0580666
0.0580666
0.0580666
0.0580666
0.0580666
0.0580666
0.0580666
0.0580666
0.0580666
0.0580666
0.0580666
0.0580666
0.0580666
0.0580666
0.0580666
0.0580666
0.0580666
0.0580666
0.0580666
0.0580666
0.0580665
0.0580665
0.0580665
0.0580665
0.0580665
0.0580665
0.0580665
0.0580665
0.0580665
0.0580665
0.0580665
0.0580665
0.0580665
0.0580665
0.0580665
0.0580665
0.0580665
0.0580665
0.0580665
0.0580665
0.0580665
0.0580665
0.0580665
0.0580665
0.0580665
0.0580665
0.0580665
0.0580665
0.0580665
0.0580665
0.0580665
0.0580665
0.0580665
0.0580665
0.0580665
0.0580665
0.0580664
0.0580664
0.0580664
0.0580664
0.0580664
0.0580664
0.0580664
0.0580664
0.0580664
0.0580664
0.0580664
0.0580664
0.0580664
0.0580664
0.0580664
0.0580664
0.0580664
0.0580664
0.0580664
0.0580664
0.0580664
0.0580664
0.0580664
0.0580664
0.0580664
0.0580664
0.0580664
0.0580663
0.0580663
0.0580663
0.0580663
0.0580663
0.0580663
0.0580663
0.0580663
0.0580663
0.0580663
0.0580663
0.0580663
0.0580663
0.0580663
0.0580663
0.0580663
0.0580663
0.0580663
0.0580663
0.0580663
0.0580663
0.0580662
0.0580662
0.0580662
0.0580662
0.0580662
0.0580662
0.0580662
0.0580662
0.0580662
0.0580662
0.0580662
0.0580662
0.0580662
0.0580662
0.0580662
0.0580662
0.0580662
0.0580661
0.0580661
0.0580661
0.0580661
0.0580661
0.0580661
0.0580661
0.0580661
0.0580661
0.0580661
0.0580661
0.0580661
0.0580661
0.0580661
0.058066
0.058066
0.058066
0.058066
0.058066
0.058066
0.058066
0.058066
0.058066
0.058066
0.058066
0.058066
0.0580659
0.0580659
0.0580659
0.0580659
0.0580659
0.0580659
0.0580659
0.0580659
0.0580659
0.0580659
0.0580658
0.0580658
0.0580658
0.0580658
0.0580658
0.0580658
0.0580658
0.0580658
0.0580657
0.0580657
0.0580657
0.0580657
0.0580657
0.0580657
0.0580657
0.0580657
0.0580656
0.0580656
0.0580656
0.0580656
0.0580656
0.0580656
0.0580656
0.0580655
0.0580655
0.0580655
0.0580655
0.0580655
0.0580654
0.0580654
0.0580654
0.0580654
0.0580654
0.0580654
0.0580653
0.0580653
0.0580653
0.0580653
0.0580652
0.0580652
0.0580652
0.0580652
0.0580652
0.0580651
0.0580651
0.0580651
0.0580651
0.058065
0.058065
0.058065
0.0580649
0.0580649
0.0580649
0.0580648
0.0580648
0.0580648
0.0580647
0.0580647
0.0580647
0.0580646
0.0580646
0.0580645
0.0580645
0.0580645
0.0580644
0.0580644
0.0580643
0.0580643
0.0580642
0.0580642
0.0580641
0.0580641
0.058064
0.0580639
0.0580639
0.0580638
0.0580637
0.0580637
0.0580636
0.0580635
0.0580634
0.0580634
0.0580633
0.0580632
0.0580631
0.058063
0.0580629
0.0580628
0.0580627
0.0580625
0.0580624
0.0580623
0.0580621
0.058062
0.0580618
0.0580616
0.0580615
0.0580613
0.058061
0.0580608
0.0580606
0.0580603
0.05806
0.0580597
0.0580594
0.0580591
0.0580587
0.0580583
0.0580578
0.0580573
0.0580567
0.0580561
0.0580554
0.0580545
0.0580536
0.0580525
0.0580513
0.0580498
0.058048
0.0580459
0.0580433
0.0580401
0.058036
0.0580305
0.0580231
0.0580126
0.0579972
0.0579724
0.0579267
0.0578231
0.0575349
0.0566024
0.0532467
0.0381451
0.0189177
0.0091781
0.00445582
0.00217958
0.00107422
0.000532345
0.000264712
0.000131882
6.57675e-05
3.28102e-05
1.63699e-05
8.16684e-06
4.07387e-06
2.03188e-06
1.01329e-06
5.05287e-07
2.51968e-07
1.25658e-07
6.27037e-08
3.13032e-08
1.56618e-08
7.87391e-09
3.98645e-09
2.03702e-09
1.15013e-09
8.00224e-10
4.76487e-10
3.0365e-10
2.14133e-10
1.68474e-10
1.51829e-10
1.40941e-10
1.34293e-10
1.30743e-10
1.28552e-10
1.27248e-10
1.2647e-10
1.26138e-10
1.25975e-10
1.25831e-10
1.25765e-10
1.25732e-10
1.25709e-10
1.25697e-10
1.25689e-10
1.25686e-10
1.25684e-10
1.25683e-10
1.25683e-10
1.25683e-10
1.25683e-10
1.25683e-10
1.25683e-10
1.25684e-10
1.25684e-10
1.25685e-10
1.25685e-10
1.25686e-10
1.25686e-10
1.25686e-10
1.25687e-10
1.25688e-10
1.25688e-10
1.25688e-10
1.25689e-10
1.25689e-10
1.2569e-10
1.2569e-10
1.25691e-10
1.25691e-10
1.25692e-10
1.25692e-10
1.25692e-10
1.25693e-10
1.25693e-10
1.25694e-10
1.25694e-10
1.25695e-10
1.25695e-10
1.25695e-10
1.25696e-10
1.25696e-10
1.25697e-10
1.25697e-10
1.25698e-10
1.25698e-10
1.25699e-10
1.25699e-10
1.257e-10
1.257e-10
1.25701e-10
1.25701e-10
1.25701e-10
1.25702e-10
1.25702e-10
1.25703e-10
1.25703e-10
1.25704e-10
1.25704e-10
1.25705e-10
1.25705e-10
1.25706e-10
1.25706e-10
1.25707e-10
1.25707e-10
1.25708e-10
1.25708e-10
1.25709e-10
1.25709e-10
1.25709e-10
1.2571e-10
1.2571e-10
1.25711e-10
1.25711e-10
1.25712e-10
1.25712e-10
1.25713e-10
1.25713e-10
1.25713e-10
1.25714e-10
1.25714e-10
1.25715e-10
1.25715e-10
1.25716e-10
1.25716e-10
1.25717e-10
1.25717e-10
1.25718e-10
1.25718e-10
1.25719e-10
1.25719e-10
1.25719e-10
1.2572e-10
1.2572e-10
1.25721e-10
1.25721e-10
1.25722e-10
1.25722e-10
1.25723e-10
1.25723e-10
1.25723e-10
1.25724e-10
1.25724e-10
1.25725e-10
1.25725e-10
1.25726e-10
1.25726e-10
1.25727e-10
1.25727e-10
1.25728e-10
1.25728e-10
1.25728e-10
1.25729e-10
1.25729e-10
1.2573e-10
1.2573e-10
1.25731e-10
1.25731e-10
1.25732e-10
1.25732e-10
1.25733e-10
1.25734e-10
1.25734e-10
1.25735e-10
1.25735e-10
1.25736e-10
1.25736e-10
1.25736e-10
1.25737e-10
1.25737e-10
1.25738e-10
1.25738e-10
1.25739e-10
1.2574e-10
1.2574e-10
1.2574e-10
1.25741e-10
1.25741e-10
1.25742e-10
1.25742e-10
1.25743e-10
1.25743e-10
1.25743e-10
1.25744e-10
1.25745e-10
1.25745e-10
1.25745e-10
1.25746e-10
1.25746e-10
1.25747e-10
1.25747e-10
1.25748e-10
1.25748e-10
1.25749e-10
1.25749e-10
1.25749e-10
1.2575e-10
1.2575e-10
1.25751e-10
1.25751e-10
1.25752e-10
1.25752e-10
1.25753e-10
1.25753e-10
1.25754e-10
1.25754e-10
1.25755e-10
1.25755e-10
1.25756e-10
1.25756e-10
1.25757e-10
1.25757e-10
1.25758e-10
1.25758e-10
1.25759e-10
1.25759e-10
1.2576e-10
1.2576e-10
1.2576e-10
1.25761e-10
1.25761e-10
1.25762e-10
1.25762e-10
1.25763e-10
1.25763e-10
1.25764e-10
1.25764e-10
1.25765e-10
1.25765e-10
1.25766e-10
1.25766e-10
1.25766e-10
1.25767e-10
1.25768e-10
1.25768e-10
1.25769e-10
1.25769e-10
1.2577e-10
1.2577e-10
1.2577e-10
1.25771e-10
1.25771e-10
1.25772e-10
1.25772e-10
1.25773e-10
1.25773e-10
1.25774e-10
1.25774e-10
1.25775e-10
1.25775e-10
1.25776e-10
1.25776e-10
1.25777e-10
1.25777e-10
1.25778e-10
1.25778e-10
1.25779e-10
1.25779e-10
1.2578e-10
1.2578e-10
1.2578e-10
1.25781e-10
1.25781e-10
1.25782e-10
1.25782e-10
1.25783e-10
1.25783e-10
1.25784e-10
1.25784e-10
1.25785e-10
1.25785e-10
1.25786e-10
1.25786e-10
1.25787e-10
1.25787e-10
1.25788e-10
1.25788e-10
1.25789e-10
1.25789e-10
1.2579e-10
1.2579e-10
1.2579e-10
1.25791e-10
1.25791e-10
1.25792e-10
1.25792e-10
1.25793e-10
1.25793e-10
1.25794e-10
1.25794e-10
1.25795e-10
1.25795e-10
1.25796e-10
1.25796e-10
1.25797e-10
1.25797e-10
1.25798e-10
1.25798e-10
1.25799e-10
1.25799e-10
1.25799e-10
1.258e-10
1.25801e-10
1.25801e-10
1.25802e-10
1.25802e-10
1.25803e-10
1.25803e-10
1.25804e-10
1.25804e-10
1.25804e-10
1.25805e-10
1.25805e-10
1.25806e-10
1.25806e-10
1.25807e-10
1.25807e-10
1.25808e-10
1.25808e-10
1.25809e-10
1.25809e-10
1.2581e-10
1.2581e-10
1.25811e-10
1.25811e-10
1.25812e-10
1.25812e-10
1.25813e-10
1.25813e-10
1.25813e-10
1.25814e-10
1.25814e-10
1.25815e-10
1.25815e-10
1.25816e-10
1.25817e-10
1.25817e-10
1.25818e-10
1.25818e-10
1.25819e-10
1.25819e-10
1.2582e-10
1.2582e-10
1.25821e-10
1.25821e-10
1.25822e-10
1.25822e-10
1.25823e-10
1.25823e-10
1.25824e-10
1.25824e-10
1.25825e-10
1.25825e-10
1.25826e-10
1.25826e-10
1.25827e-10
1.25827e-10
1.25827e-10
1.25828e-10
1.25828e-10
1.25829e-10
1.25829e-10
1.2583e-10
1.2583e-10
1.25831e-10
1.25831e-10
1.25832e-10
1.25832e-10
1.25833e-10
1.25833e-10
1.25834e-10
1.25834e-10
1.25835e-10
1.25835e-10
1.25835e-10
1.25836e-10
1.25836e-10
1.25837e-10
1.25837e-10
1.25838e-10
1.25839e-10
1.25839e-10
1.25839e-10
1.2584e-10
1.2584e-10
1.25841e-10
1.25841e-10
1.25842e-10
1.25842e-10
1.25843e-10
1.25843e-10
1.25844e-10
1.25844e-10
1.25845e-10
)
;

boundaryField
{
    fixedWall
    {
        type            zeroGradient;
    }
    outlet
    {
        type            inletOutlet;
        inletValue      uniform 0;
        value           uniform 1.25845e-10;
    }
    defaultFaces
    {
        type            empty;
    }
}


// ************************************************************************* //
