/*--------------------------------*- C++ -*----------------------------------*\
| =========                 |                                                 |
| \\      /  F ield         | OpenFOAM: The Open Source CFD Toolbox           |
|  \\    /   O peration     | Version:  2406                                  |
|   \\  /    A nd           | Website:  www.openfoam.com                      |
|    \\/     M anipulation  |                                                 |
\*---------------------------------------------------------------------------*/
FoamFile
{
    version     2.0;
    format      ascii;
    arch        "LSB;label=32;scalar=64";
    class       surfaceScalarField;
    location    "3.8";
    object      phi;
}
// * * * * * * * * * * * * * * * * * * * * * * * * * * * * * * * * * * * * * //

dimensions      [1 0 -1 0 0 0 0];

oriented        oriented;

internalField   nonuniform List<scalar> 
999
(
-3.32606e-08
-1.51415e-07
-3.10587e-07
-4.8993e-07
-6.78701e-07
-8.71017e-07
-1.06351e-06
-1.25418e-06
-1.44185e-06
-1.6258e-06
-1.8056e-06
-1.98103e-06
-2.15196e-06
-2.31835e-06
-2.48022e-06
-2.63758e-06
-2.79051e-06
-2.93907e-06
-3.08334e-06
-3.22339e-06
-3.35931e-06
-3.49119e-06
-3.61909e-06
-3.7431e-06
-3.8633e-06
-3.97976e-06
-4.09255e-06
-4.20175e-06
-4.30741e-06
-4.40962e-06
-4.50843e-06
-4.6039e-06
-4.6961e-06
-4.7851e-06
-4.87094e-06
-4.95368e-06
-5.03339e-06
-5.11012e-06
-5.18392e-06
-5.25485e-06
-5.32297e-06
-5.38833e-06
-5.45099e-06
-5.511e-06
-5.5684e-06
-5.62326e-06
-5.67563e-06
-5.72556e-06
-5.77311e-06
-5.81832e-06
-5.86125e-06
-5.90195e-06
-5.94048e-06
-5.97689e-06
-6.01123e-06
-6.04355e-06
-6.07391e-06
-6.10236e-06
-6.12895e-06
-6.15373e-06
-6.17675e-06
-6.19807e-06
-6.21774e-06
-6.2358e-06
-6.25231e-06
-6.26732e-06
-6.28088e-06
-6.29303e-06
-6.30383e-06
-6.31332e-06
-6.32155e-06
-6.32857e-06
-6.33442e-06
-6.33915e-06
-6.34279e-06
-6.3454e-06
-6.34702e-06
-6.34768e-06
-6.34744e-06
-6.34636e-06
-6.34458e-06
-6.34147e-06
-6.33797e-06
-6.33375e-06
-6.32886e-06
-6.32332e-06
-6.31715e-06
-6.3104e-06
-6.30308e-06
-6.29524e-06
-6.28689e-06
-6.27807e-06
-6.2688e-06
-6.25911e-06
-6.24901e-06
-6.23855e-06
-6.22773e-06
-6.21658e-06
-6.20511e-06
-6.19336e-06
-6.18133e-06
-6.16905e-06
-6.15652e-06
-6.14377e-06
-6.13081e-06
-6.11766e-06
-6.10432e-06
-6.09082e-06
-6.07715e-06
-6.06335e-06
-6.0494e-06
-6.03533e-06
-6.02115e-06
-6.00686e-06
-5.99247e-06
-5.97798e-06
-5.96342e-06
-5.94877e-06
-5.93406e-06
-5.91928e-06
-5.90444e-06
-5.88954e-06
-5.87459e-06
-5.8596e-06
-5.84457e-06
-5.8295e-06
-5.81439e-06
-5.79925e-06
-5.78408e-06
-5.76889e-06
-5.75367e-06
-5.73843e-06
-5.72318e-06
-5.7079e-06
-5.69261e-06
-5.67731e-06
-5.66199e-06
-5.64666e-06
-5.63132e-06
-5.61598e-06
-5.60062e-06
-5.58526e-06
-5.56989e-06
-5.55451e-06
-5.53913e-06
-5.52375e-06
-5.50836e-06
-5.49297e-06
-5.47758e-06
-5.46218e-06
-5.44678e-06
-5.43138e-06
-5.41597e-06
-5.40057e-06
-5.38516e-06
-5.36975e-06
-5.35434e-06
-5.33893e-06
-5.32352e-06
-5.3081e-06
-5.29269e-06
-5.27727e-06
-5.26186e-06
-5.24644e-06
-5.23102e-06
-5.2156e-06
-5.20018e-06
-5.18476e-06
-5.16934e-06
-5.15392e-06
-5.13849e-06
-5.12307e-06
-5.10764e-06
-5.09221e-06
-5.07678e-06
-5.06135e-06
-5.04592e-06
-5.03049e-06
-5.01505e-06
-4.99962e-06
-4.98418e-06
-4.96874e-06
-4.9533e-06
-4.93785e-06
-4.92241e-06
-4.90696e-06
-4.89151e-06
-4.87606e-06
-4.86061e-06
-4.84515e-06
-4.8297e-06
-4.81424e-06
-4.79878e-06
-4.78331e-06
-4.76785e-06
-4.75238e-06
-4.73691e-06
-4.72144e-06
-4.70596e-06
-4.69048e-06
-4.675e-06
-4.65952e-06
-4.64403e-06
-4.62854e-06
-4.61305e-06
-4.59756e-06
-4.58206e-06
-4.56656e-06
-4.55106e-06
-4.53555e-06
-4.52004e-06
-4.50453e-06
-4.48901e-06
-4.4735e-06
-4.45798e-06
-4.44245e-06
-4.42693e-06
-4.4114e-06
-4.39586e-06
-4.38033e-06
-4.36479e-06
-4.34925e-06
-4.3337e-06
-4.31815e-06
-4.3026e-06
-4.28704e-06
-4.27149e-06
-4.25592e-06
-4.24036e-06
-4.22479e-06
-4.20922e-06
-4.19365e-06
-4.17807e-06
-4.16249e-06
-4.1469e-06
-4.13131e-06
-4.11572e-06
-4.10013e-06
-4.08453e-06
-4.06893e-06
-4.05332e-06
-4.03772e-06
-4.0221e-06
-4.00649e-06
-3.99087e-06
-3.97525e-06
-3.95962e-06
-3.94399e-06
-3.92836e-06
-3.91272e-06
-3.89708e-06
-3.88144e-06
-3.86579e-06
-3.85014e-06
-3.83448e-06
-3.81882e-06
-3.80316e-06
-3.78749e-06
-3.77182e-06
-3.75615e-06
-3.74047e-06
-3.72479e-06
-3.7091e-06
-3.69341e-06
-3.67772e-06
-3.66202e-06
-3.64632e-06
-3.63061e-06
-3.6149e-06
-3.59919e-06
-3.58347e-06
-3.56775e-06
-3.55203e-06
-3.5363e-06
-3.52057e-06
-3.50483e-06
-3.48909e-06
-3.47335e-06
-3.4576e-06
-3.44185e-06
-3.42609e-06
-3.41033e-06
-3.39457e-06
-3.37881e-06
-3.36304e-06
-3.34727e-06
-3.33149e-06
-3.31571e-06
-3.29993e-06
-3.28414e-06
-3.26836e-06
-3.25256e-06
-3.23677e-06
-3.22097e-06
-3.20517e-06
-3.18936e-06
-3.17355e-06
-3.15774e-06
-3.14193e-06
-3.12611e-06
-3.11029e-06
-3.09446e-06
-3.07863e-06
-3.0628e-06
-3.04697e-06
-3.03113e-06
-3.01529e-06
-2.99945e-06
-2.9836e-06
-2.96775e-06
-2.9519e-06
-2.93604e-06
-2.92018e-06
-2.90431e-06
-2.88845e-06
-2.87258e-06
-2.8567e-06
-2.84082e-06
-2.82494e-06
-2.80906e-06
-2.79317e-06
-2.77727e-06
-2.76138e-06
-2.74548e-06
-2.72957e-06
-2.71366e-06
-2.69775e-06
-2.68183e-06
-2.66591e-06
-2.64999e-06
-2.63406e-06
-2.61812e-06
-2.60219e-06
-2.58624e-06
-2.5703e-06
-2.55434e-06
-2.53839e-06
-2.52243e-06
-2.50646e-06
-2.49049e-06
-2.47452e-06
-2.45854e-06
-2.44256e-06
-2.42657e-06
-2.41057e-06
-2.39458e-06
-2.37857e-06
-2.36257e-06
-2.34656e-06
-2.33054e-06
-2.31452e-06
-2.29849e-06
-2.28247e-06
-2.26643e-06
-2.25039e-06
-2.23435e-06
-2.2183e-06
-2.20225e-06
-2.1862e-06
-2.17014e-06
-2.15407e-06
-2.13801e-06
-2.12194e-06
-2.10586e-06
-2.08978e-06
-2.0737e-06
-2.05762e-06
-2.04153e-06
-2.02543e-06
-2.00934e-06
-1.99324e-06
-1.97713e-06
-1.96103e-06
-1.94492e-06
-1.92881e-06
-1.91269e-06
-1.89657e-06
-1.88045e-06
-1.86432e-06
-1.84819e-06
-1.83206e-06
-1.81593e-06
-1.79979e-06
-1.78365e-06
-1.76751e-06
-1.75136e-06
-1.73521e-06
-1.71906e-06
-1.70291e-06
-1.68675e-06
-1.67059e-06
-1.65443e-06
-1.63827e-06
-1.6221e-06
-1.60593e-06
-1.58976e-06
-1.57359e-06
-1.55742e-06
-1.54124e-06
-1.52506e-06
-1.50888e-06
-1.4927e-06
-1.47652e-06
-1.46034e-06
-1.44415e-06
-1.42797e-06
-1.41178e-06
-1.39559e-06
-1.3794e-06
-1.36321e-06
-1.34702e-06
-1.33082e-06
-1.31463e-06
-1.29843e-06
-1.28223e-06
-1.26602e-06
-1.24982e-06
-1.2336e-06
-1.21739e-06
-1.20117e-06
-1.18494e-06
-1.16871e-06
-1.15247e-06
-1.13623e-06
-1.11997e-06
-1.10371e-06
-1.08744e-06
-1.07115e-06
-1.05486e-06
-1.03855e-06
-1.02223e-06
-1.0059e-06
-9.89554e-07
-9.73193e-07
-9.56817e-07
-9.40426e-07
-9.2402e-07
-9.07599e-07
-8.91162e-07
-8.74709e-07
-8.58241e-07
-8.41758e-07
-8.25261e-07
-8.08749e-07
-7.92224e-07
-7.75686e-07
-7.59137e-07
-7.42575e-07
-7.26004e-07
-7.09423e-07
-6.92834e-07
-6.76238e-07
-6.59637e-07
-6.43029e-07
-6.26417e-07
-6.09802e-07
-5.93185e-07
-5.76566e-07
-5.59947e-07
-5.43329e-07
-5.2671e-07
-5.10094e-07
-4.93479e-07
-4.76866e-07
-4.60258e-07
-4.43653e-07
-4.27051e-07
-4.10455e-07
-3.93863e-07
-3.77276e-07
-3.60695e-07
-3.44119e-07
-3.27549e-07
-3.10985e-07
-2.94426e-07
-2.77873e-07
-2.61325e-07
-2.44782e-07
-2.28245e-07
-2.1171e-07
-1.9518e-07
-1.78652e-07
-1.62126e-07
-1.45601e-07
-1.29075e-07
-1.12548e-07
-9.60152e-08
-7.94777e-08
-6.29321e-08
-4.63768e-08
-2.98106e-08
-1.32297e-08
3.36696e-09
1.9982e-08
3.66167e-08
5.32748e-08
6.99569e-08
8.66648e-08
1.034e-07
1.20163e-07
1.36956e-07
1.53777e-07
1.70626e-07
1.87504e-07
2.04408e-07
2.21338e-07
2.3829e-07
2.55262e-07
2.72251e-07
2.89253e-07
3.06265e-07
3.23282e-07
3.40299e-07
3.57313e-07
3.74318e-07
3.91311e-07
4.08287e-07
4.25243e-07
4.42178e-07
4.59087e-07
4.75971e-07
4.9283e-07
5.09663e-07
5.26475e-07
5.43266e-07
5.60044e-07
5.76813e-07
5.93581e-07
6.10355e-07
6.27143e-07
6.43955e-07
6.60797e-07
6.77681e-07
6.94612e-07
7.11599e-07
7.28648e-07
7.45763e-07
7.62948e-07
7.80204e-07
7.97531e-07
8.14925e-07
8.32383e-07
8.49899e-07
8.67466e-07
8.85071e-07
9.02707e-07
9.20364e-07
9.38029e-07
9.55691e-07
9.73339e-07
9.90964e-07
1.00855e-06
1.0261e-06
1.04359e-06
1.06102e-06
1.07837e-06
1.09566e-06
1.11285e-06
1.12997e-06
1.14699e-06
1.16394e-06
1.1808e-06
1.1976e-06
1.21437e-06
1.23112e-06
1.2479e-06
1.26476e-06
1.28175e-06
1.29892e-06
1.31636e-06
1.33411e-06
1.35224e-06
1.37079e-06
1.3898e-06
1.40927e-06
1.42919e-06
1.44949e-06
1.4701e-06
1.49086e-06
1.51162e-06
1.53219e-06
1.55236e-06
1.57195e-06
1.59085e-06
1.60903e-06
1.62663e-06
1.64398e-06
1.66159e-06
1.68022e-06
1.70073e-06
1.72401e-06
1.75084e-06
1.78171e-06
1.81672e-06
1.8558e-06
1.89966e-06
1.95248e-06
2.02671e-06
2.1485e-06
2.35407e-06
2.64803e-06
2.85147e-06
2.23522e-06
-1.02713e-06
-7.58456e-06
0.000169201
0.000390418
0.000601017
0.000762846
0.000869683
0.000933874
0.000970433
0.000990665
0.0010017
0.00100768
0.00101091
0.00101267
0.00101364
0.00101419
0.0010145
0.0010147
0.00101483
0.00101492
0.001015
0.00101506
0.00101512
0.00101518
0.00101524
0.00101529
0.00101535
0.0010154
0.00101546
0.00101551
0.00101556
0.00101562
0.00101567
0.00101572
0.00101578
0.00101583
0.00101588
0.00101593
0.00101599
0.00101604
0.00101609
0.00101614
0.00101619
0.00101624
0.00101629
0.00101635
0.0010164
0.00101645
0.0010165
0.00101655
0.0010166
0.00101665
0.0010167
0.00101675
0.0010168
0.00101685
0.0010169
0.00101695
0.001017
0.00101704
0.00101709
0.00101714
0.00101719
0.00101724
0.00101729
0.00101733
0.00101738
0.00101743
0.00101748
0.00101753
0.00101757
0.00101762
0.00101767
0.00101771
0.00101776
0.00101781
0.00101785
0.0010179
0.00101794
0.00101799
0.00101804
0.00101808
0.00101813
0.00101817
0.00101822
0.00101826
0.00101831
0.00101835
0.00101839
0.00101844
0.00101848
0.00101853
0.00101857
0.00101861
0.00101866
0.0010187
0.00101874
0.00101879
0.00101883
0.00101887
0.00101892
0.00101896
0.001019
0.00101904
0.00101908
0.00101913
0.00101917
0.00101921
0.00101925
0.00101929
0.00101933
0.00101937
0.00101941
0.00101945
0.0010195
0.00101954
0.00101958
0.00101962
0.00101966
0.0010197
0.00101973
0.00101977
0.00101981
0.00101985
0.00101989
0.00101993
0.00101997
0.00102001
0.00102005
0.00102008
0.00102012
0.00102016
0.0010202
0.00102023
0.00102027
0.00102031
0.00102035
0.00102038
0.00102042
0.00102046
0.00102049
0.00102053
0.00102057
0.0010206
0.00102064
0.00102067
0.00102071
0.00102074
0.00102078
0.00102082
0.00102085
0.00102089
0.00102092
0.00102095
0.00102099
0.00102102
0.00102106
0.00102109
0.00102112
0.00102116
0.00102119
0.00102123
0.00102126
0.00102129
0.00102132
0.00102136
0.00102139
0.00102142
0.00102145
0.00102149
0.00102152
0.00102155
0.00102158
0.00102161
0.00102165
0.00102168
0.00102171
0.00102174
0.00102177
0.0010218
0.00102183
0.00102186
0.00102189
0.00102192
0.00102195
0.00102198
0.00102201
0.00102204
0.00102207
0.0010221
0.00102213
0.00102216
0.00102219
0.00102222
0.00102224
0.00102227
0.0010223
0.00102233
0.00102236
0.00102239
0.00102241
0.00102244
0.00102247
0.00102249
0.00102252
0.00102255
0.00102258
0.0010226
0.00102263
0.00102266
0.00102268
0.00102271
0.00102273
0.00102276
0.00102278
0.00102281
0.00102284
0.00102286
0.00102289
0.00102291
0.00102294
0.00102296
0.00102298
0.00102301
0.00102303
0.00102306
0.00102308
0.0010231
0.00102313
0.00102315
0.00102318
0.0010232
0.00102322
0.00102324
0.00102327
0.00102329
0.00102331
0.00102333
0.00102336
0.00102338
0.0010234
0.00102342
0.00102344
0.00102347
0.00102349
0.00102351
0.00102353
0.00102355
0.00102357
0.00102359
0.00102361
0.00102363
0.00102365
0.00102367
0.00102369
0.00102371
0.00102373
0.00102375
0.00102377
0.00102379
0.00102381
0.00102383
0.00102385
0.00102386
0.00102388
0.0010239
0.00102392
0.00102394
0.00102396
0.00102397
0.00102399
0.00102401
0.00102403
0.00102404
0.00102406
0.00102408
0.00102409
0.00102411
0.00102413
0.00102414
0.00102416
0.00102418
0.00102419
0.00102421
0.00102422
0.00102424
0.00102425
0.00102427
0.00102428
0.0010243
0.00102431
0.00102433
0.00102434
0.00102436
0.00102437
0.00102439
0.0010244
0.00102441
0.00102443
0.00102444
0.00102445
0.00102447
0.00102448
0.00102449
0.00102451
0.00102452
0.00102453
0.00102454
0.00102456
0.00102457
0.00102458
0.00102459
0.0010246
0.00102461
0.00102463
0.00102464
0.00102465
0.00102466
0.00102467
0.00102468
0.00102469
0.0010247
0.00102471
0.00102472
0.00102473
0.00102474
0.00102475
0.00102476
0.00102477
0.00102478
0.00102479
0.0010248
0.00102481
0.00102482
0.00102482
0.00102483
0.00102484
0.00102485
0.00102486
0.00102487
0.00102487
0.00102488
0.00102489
0.0010249
0.0010249
0.00102491
0.00102492
0.00102492
0.00102493
0.00102494
0.00102494
0.00102495
0.00102495
0.00102496
0.00102497
0.00102497
0.00102498
0.00102498
0.00102499
0.00102499
0.001025
0.001025
0.00102501
0.00102501
0.00102502
0.00102502
0.00102503
0.00102503
0.00102503
0.00102504
0.00102504
0.00102504
0.00102505
0.00102505
0.00102505
0.00102506
0.00102506
0.00102506
0.00102506
0.00102507
0.00102507
0.00102507
0.00102507
0.00102507
0.00102508
0.00102508
0.00102508
0.00102508
0.00102508
0.00102508
0.00102508
0.00102508
0.00102508
0.00102508
0.00102508
0.00102508
)
;

boundaryField
{
    fixedWall
    {
        type            calculated;
        value           uniform 0;
    }
    outlet
    {
        type            calculated;
        value           uniform 0.00102508;
    }
    defaultFaces
    {
        type            empty;
    }
}


// ************************************************************************* //
