/*--------------------------------*- C++ -*----------------------------------*\
| =========                 |                                                 |
| \\      /  F ield         | OpenFOAM: The Open Source CFD Toolbox           |
|  \\    /   O peration     | Version:  2406                                  |
|   \\  /    A nd           | Website:  www.openfoam.com                      |
|    \\/     M anipulation  |                                                 |
\*---------------------------------------------------------------------------*/
FoamFile
{
    version     2.0;
    format      ascii;
    arch        "LSB;label=32;scalar=64";
    class       volScalarField;
    location    "3.8";
    object      Qdot;
}
// * * * * * * * * * * * * * * * * * * * * * * * * * * * * * * * * * * * * * //

dimensions      [1 -1 -3 0 0 0 0];

internalField   nonuniform List<scalar> 
1000
(
7.27375e-13
-2.49084e-08
-3.06131e-08
1.66566e-07
1.19919e-06
6.74232e-06
2.61109e-05
8.15941e-05
0.000215591
0.00049827
0.00103346
0.0019604
0.0034516
0.00570534
0.00893531
0.0133569
0.0191732
0.0265606
0.0356571
0.046553
0.0592843
0.0738309
0.0901169
0.108015
0.127354
0.147924
0.16949
0.1918
0.214595
0.237616
0.260617
0.283368
0.305659
0.32731
0.348166
0.368102
0.387022
0.404858
0.421568
0.437134
0.451557
0.464857
0.477069
0.488239
0.498423
0.507683
0.516085
0.523699
0.530593
0.536837
0.542497
0.547638
0.552321
0.556603
0.560537
0.564172
0.567552
0.570719
0.573707
0.57655
0.579275
0.581909
0.584472
0.586983
0.589459
0.591913
0.594357
0.5968
0.59925
0.601713
0.604194
0.606697
0.609225
0.611779
0.614361
0.616971
0.619611
0.622279
0.624975
0.627698
0.630448
0.633206
0.635987
0.638811
0.641656
0.644521
0.647405
0.650306
0.653225
0.656159
0.659108
0.662071
0.665048
0.668037
0.671038
0.674051
0.677075
0.68011
0.683156
0.686212
0.689279
0.692356
0.695443
0.69854
0.701648
0.704766
0.707895
0.711035
0.714186
0.717349
0.720523
0.723709
0.726908
0.730119
0.733343
0.736581
0.739832
0.743097
0.746377
0.749672
0.752982
0.756308
0.75965
0.763009
0.766384
0.769776
0.773186
0.776614
0.780061
0.783526
0.78701
0.790513
0.794031
0.797543
0.801112
0.804702
0.808314
0.811946
0.815599
0.819274
0.82297
0.826689
0.830431
0.834196
0.837984
0.841797
0.845634
0.849495
0.853381
0.857293
0.86123
0.865193
0.869183
0.873199
0.877242
0.881312
0.88541
0.889535
0.893689
0.897871
0.902082
0.906322
0.910591
0.914889
0.919218
0.923577
0.927967
0.932388
0.93684
0.941323
0.945838
0.950386
0.954966
0.959579
0.964225
0.968904
0.973618
0.978366
0.983148
0.987965
0.992817
0.997705
1.00263
1.00759
1.01259
1.01762
1.02269
1.0278
1.03295
1.03813
1.04335
1.04862
1.05392
1.05926
1.06465
1.07007
1.07554
1.08104
1.08659
1.09218
1.09782
1.10349
1.10921
1.11498
1.12079
1.12664
1.13254
1.13848
1.14447
1.15051
1.1566
1.16273
1.16891
1.17514
1.18141
1.18774
1.19412
1.20055
1.20702
1.21355
1.22014
1.22677
1.23346
1.2402
1.24699
1.25384
1.26075
1.26771
1.27473
1.28181
1.28894
1.29613
1.30338
1.31069
1.31806
1.3255
1.33299
1.34055
1.34817
1.35585
1.3636
1.37141
1.37929
1.38724
1.39525
1.40334
1.41149
1.41971
1.42801
1.43637
1.44481
1.45332
1.4619
1.47056
1.4793
1.48811
1.497
1.50597
1.51502
1.52415
1.53336
1.54265
1.55202
1.56148
1.57103
1.58066
1.59037
1.60018
1.61007
1.62006
1.63013
1.6403
1.65056
1.66092
1.67137
1.68192
1.69256
1.70331
1.71416
1.7251
1.73616
1.74731
1.75858
1.76995
1.78143
1.79301
1.80472
1.81653
1.82846
1.84051
1.85267
1.86496
1.87736
1.8899
1.90255
1.91534
1.92817
1.94109
1.95428
1.9676
1.98106
1.99465
2.00838
2.02226
2.03627
2.05044
2.06475
2.07921
2.09383
2.1086
2.12353
2.13862
2.15387
2.16929
2.18488
2.20063
2.21656
2.23266
2.24894
2.2654
2.28204
2.29887
2.31589
2.3331
2.3505
2.3681
2.38589
2.40389
2.4221
2.44051
2.45913
2.47797
2.49702
2.51629
2.53579
2.55551
2.57546
2.59564
2.61606
2.63672
2.65762
2.67877
2.70017
2.72182
2.74373
2.7659
2.78833
2.81104
2.83401
2.85727
2.8808
2.90462
2.92873
2.95314
2.97784
3.00285
3.02817
3.0538
3.07975
3.10603
3.13264
3.15958
3.18687
3.2145
3.24249
3.27084
3.29956
3.32865
3.35812
3.38797
3.41823
3.44888
3.47994
3.51142
3.54332
3.57566
3.60843
3.64166
3.67534
3.70949
3.74412
3.77922
3.81483
3.85093
3.88755
3.9247
3.96237
4.0006
4.03937
4.07871
4.11863
4.15914
4.20025
4.24198
4.28433
4.32732
4.37096
4.41526
4.46025
4.50593
4.55232
4.59944
4.6473
4.6959
4.74525
4.79488
4.84574
4.89746
4.95005
5.00351
5.05786
5.11311
5.16928
5.22639
5.28447
5.34353
5.40361
5.46472
5.52689
5.59014
5.6545
5.72
5.78665
5.85449
5.92353
5.99382
6.06538
6.13822
6.21239
6.28792
6.36482
6.44313
6.52288
6.60411
6.68684
6.77111
6.85695
6.94439
7.03348
7.12425
7.21673
7.31098
7.40703
7.50493
7.60472
7.70645
7.81018
7.91596
8.02346
8.13244
8.2447
8.35923
8.47611
8.59539
8.71717
8.8415
8.96848
9.09817
9.23066
9.36605
9.50441
9.64583
9.79042
9.93828
10.0895
10.2442
10.4025
10.5644
10.7302
10.9
11.0738
11.2518
11.4341
11.6209
11.8124
12.0087
12.21
12.4164
12.6281
12.8453
13.0682
13.297
13.5319
13.7723
14.0178
14.2724
14.5341
14.8031
15.0797
15.3641
15.6567
15.9578
16.2677
16.5867
16.9151
17.2534
17.6019
17.961
18.3311
18.7125
19.1059
19.5116
19.93
20.3619
20.8075
21.2677
21.7429
22.2338
22.7412
23.2626
23.7997
24.3608
24.9415
25.5427
26.1656
26.8112
27.4807
28.1755
28.8969
29.6464
30.4254
31.2358
32.0792
32.9574
33.8713
34.8154
35.8095
36.8472
37.9313
39.0645
40.2495
41.4894
42.7874
44.147
45.5719
47.0661
48.634
50.2804
52.0101
53.8288
55.7424
57.7573
59.8755
62.0918
64.4529
66.9475
69.586
72.3799
75.3417
78.4848
81.8246
85.3778
89.1633
93.2021
97.5179
102.137
107.089
112.409
118.133
124.304
130.951
138.095
145.914
154.415
163.677
173.792
184.864
197.014
210.377
225.114
241.411
259.486
279.599
302.057
327.23
355.567
387.614
423.762
464.938
512.706
568.02
632.611
708.729
799.308
907.115
1038.62
1200.87
1402.94
1657.96
1984.74
2410.98
2978.87
3755.52
4853.38
6470.92
8976.1
13083.1
20242.4
33533.6
59802.7
115543
248011
638481
2.06971e+06
8.56221e+06
1.81827e+07
90984.2
278.545
2.33092
0.0816645
0.00998531
0.00291806
0.00146101
0.000998919
0.000812573
0.000727102
0.00068498
0.00066339
0.000652157
0.000646205
0.000643148
0.000641474
0.000640504
0.000640065
0.000639793
0.000639726
0.000639653
0.000639616
0.0006396
0.000639593
0.000639592
0.000639594
0.000639597
0.000639601
0.000639607
0.000639611
0.000639616
0.000639621
0.000639627
0.000639633
0.000639637
0.000639644
0.00063965
0.000639657
0.000639661
0.000639668
0.000639673
0.000639678
0.000639684
0.000639688
0.000639694
0.000639699
0.000639706
0.000639711
0.000639716
0.000639721
0.000639727
0.000639733
0.000639738
0.000639744
0.000639749
0.00063968
0.000639761
0.000639767
0.000639771
0.000639776
0.000639783
0.00063979
0.000639794
0.000639799
0.000639804
0.000639808
0.000639813
0.00063982
0.000639826
0.000639756
0.000639762
0.000639767
0.000639773
0.000639779
0.000639784
0.00063979
0.000639796
0.0006398
0.000639805
0.00063981
0.000639816
0.00063982
0.000639826
0.000639832
0.000639837
0.000639843
0.000639849
0.000639854
0.000639859
0.000639865
0.000639872
0.000639876
0.000639882
0.000639888
0.000639893
0.000639897
0.000639904
0.00063991
0.000639914
0.000639923
0.000639929
0.000639934
0.000639939
0.000639944
0.00063995
0.000639955
0.000639962
0.000639967
0.000639972
0.000639978
0.000639984
0.00063999
0.000639993
0.000639999
0.000640005
0.000640009
0.000640015
0.000640021
0.000640025
0.000640031
0.000640038
0.000640043
0.00064005
0.000640054
0.000640058
0.000640065
0.000640071
0.000640077
0.000640082
0.000640087
0.000640092
0.000640096
0.000640103
0.000640109
0.000640115
0.000640118
0.000640125
0.00064013
0.000640135
0.00064014
0.000640146
0.000640152
0.000640157
0.000640162
0.000640167
0.000640172
0.000640178
0.000640184
0.000640189
0.000640194
0.0006402
0.000640204
0.000640208
0.000640216
0.000640222
0.000640229
0.000640234
0.000640239
0.000640245
0.000640252
0.000640259
0.000640266
0.000640272
0.000640279
0.000640285
0.000640289
0.000640294
0.000640299
0.000640304
0.00064031
0.000640316
0.000640322
0.000640329
0.000640335
0.000640339
0.000640345
0.00064035
0.000640357
0.000640361
0.000640367
0.000640371
0.000640375
0.000640382
0.000640387
0.000640394
0.000640398
0.000640403
0.000640408
0.000640415
0.00064042
0.000640425
0.000640431
0.000640435
0.000640441
0.000640446
0.000640451
0.000640457
0.000640464
0.000640469
0.000640475
0.00064048
0.000640486
0.000640491
0.000640497
0.000640503
0.000640507
0.000640514
0.00064052
0.000640527
0.000640533
0.000640463
0.00064047
0.000640475
0.00064048
0.000640486
0.00064049
0.000640495
0.0006405
0.000640505
0.000640511
0.000640516
0.000640521
0.000640528
0.000640611
0.000640539
0.000640543
0.000640548
0.000640555
0.00064056
0.000640566
0.000640571
0.000640576
0.000640659
0.000640591
0.000640595
0.0006406
0.000640607
0.000640612
0.000640617
0.000640623
0.000640627
0.000640632
0.000640713
0.000640643
0.000640726
0.000640656
0.000640661
0.000640667
0.000640672
0.000640678
0.000640683
0.000640689
0.000640695
0.000640775
0.000640707
0.000640713
0.000640717
0.000640722
0.000640729
0.000640733
0.000640814
0.000640745
0.000640751
0.000640754
0.000640759
0.000640765
0.000640771
0.000640777
0.000640782
0.000640788
0.000640869
0.0006408
0.000640883
0.000640812
0.000640817
0.000640822
0.000640828
0.000640832
0.000640839
0.000640844
0.000640849
0.00064093
0.00064086
0.000640865
0.000640872
0.000640876
0.00064088
0.000640887
0.000640892
0.000640898
0.000640903
0.000640909
0.000640917
0.000640922
0.000640927
0.000640932
0.000640938
0.000640943
0.000641024
0.000640953
0.00064096
0.000640968
0.000640974
0.000641053
0.000640984
0.000640991
0.000640997
0.000641001
0.000641007
0.000641012
0.000641017
0.000641022
0.000641028
0.000641033
0.000641038
0.000641044
0.00064105
0.000641057
0.000641062
0.000641068
0.00064115
0.000641155
0.000641085
0.00064109
0.000641095
0.000641101
0.000641106
0.000641185
0.000641116
0.000641119
0.000641127
0.000641131
0.000641137
0.000641144
0.00064115
0.000641157
0.000641163
0.000641168
0.000641176
0.000641181
0.000641185
0.000641192
0.000641198
0.000641203
0.00064121
0.000641216
0.000641221
0.000641227
0.000641234
0.000641164
0.000641245
0.000641175
0.000641181
0.000641185
0.00064119
0.000641194
0.0006412
0.000641204
0.000641211
0.000641216
0.000641221
0.000641227
0.000641231
0.000641237
0.000641244
0.000641248
0.000641255
0.00064126
0.00064134
0.00064127
0.000641276
0.000641281
0.000641288
0.000641292
0.000641298
0.000641304
0.000641385
0.000641314
0.000641321
0.000641327
0.000641332
0.000641413
0.000641418
0.000641349
0.00064143
0.000641359
0.000641365
0.000641371
0.000641377
0.000641381
0.000641387
0.000641392
0.000641475
0.000641479
)
;

boundaryField
{
    fixedWall
    {
        type            calculated;
        value           uniform 0;
    }
    outlet
    {
        type            calculated;
        value           uniform 0;
    }
    defaultFaces
    {
        type            empty;
    }
}


// ************************************************************************* //
