/*--------------------------------*- C++ -*----------------------------------*\
| =========                 |                                                 |
| \\      /  F ield         | OpenFOAM: The Open Source CFD Toolbox           |
|  \\    /   O peration     | Version:  2406                                  |
|   \\  /    A nd           | Website:  www.openfoam.com                      |
|    \\/     M anipulation  |                                                 |
\*---------------------------------------------------------------------------*/
FoamFile
{
    version     2.0;
    format      ascii;
    arch        "LSB;label=32;scalar=64";
    class       volScalarField;
    location    "3.8";
    object      T;
}
// * * * * * * * * * * * * * * * * * * * * * * * * * * * * * * * * * * * * * //

dimensions      [0 0 0 1 0 0 0];

internalField   nonuniform List<scalar> 
1000
(
314.673
352.597
386.269
416.645
444.36
469.862
493.485
515.482
536.052
555.355
573.523
590.663
606.866
622.211
636.763
650.581
663.716
676.211
688.108
699.441
710.243
720.543
730.367
739.739
748.683
757.219
765.365
773.14
780.561
787.643
794.401
800.848
806.999
812.865
818.458
823.791
828.872
833.714
838.325
842.715
846.893
850.869
854.649
858.243
861.657
864.9
867.979
870.901
873.671
876.298
878.786
881.142
883.372
885.482
887.476
889.36
891.139
892.817
894.401
895.893
897.299
898.622
899.866
901.037
902.136
903.168
904.136
905.043
905.893
906.689
907.433
908.129
908.779
909.385
909.951
910.478
910.968
911.425
911.849
912.243
912.608
912.945
913.257
913.548
913.817
914.065
914.294
914.505
914.699
914.878
915.043
915.194
915.332
915.459
915.575
915.68
915.777
915.865
915.946
916.018
916.085
916.145
916.199
916.248
916.293
916.332
916.368
916.401
916.429
916.455
916.478
916.499
916.517
916.533
916.547
916.56
916.571
916.58
916.589
916.596
916.602
916.607
916.612
916.616
916.619
916.622
916.624
916.626
916.627
916.628
916.629
916.629
916.63
916.63
916.63
916.63
916.63
916.629
916.629
916.629
916.628
916.628
916.627
916.627
916.626
916.625
916.625
916.624
916.624
916.623
916.623
916.622
916.622
916.621
916.62
916.62
916.619
916.619
916.618
916.618
916.617
916.617
916.616
916.616
916.615
916.615
916.614
916.614
916.613
916.613
916.612
916.612
916.611
916.61
916.61
916.609
916.608
916.608
916.607
916.606
916.605
916.605
916.604
916.603
916.602
916.601
916.6
916.599
916.598
916.597
916.596
916.595
916.594
916.593
916.592
916.591
916.589
916.588
916.587
916.586
916.584
916.583
916.582
916.58
916.579
916.578
916.576
916.575
916.573
916.572
916.571
916.569
916.568
916.566
916.565
916.563
916.562
916.56
916.559
916.557
916.555
916.554
916.552
916.551
916.549
916.548
916.546
916.545
916.543
916.542
916.54
916.539
916.537
916.535
916.534
916.532
916.531
916.529
916.528
916.526
916.525
916.524
916.522
916.521
916.519
916.518
916.516
916.515
916.514
916.512
916.511
916.51
916.509
916.507
916.506
916.505
916.504
916.502
916.501
916.5
916.499
916.498
916.497
916.496
916.495
916.494
916.493
916.492
916.491
916.49
916.489
916.489
916.488
916.487
916.486
916.486
916.485
916.485
916.484
916.484
916.483
916.483
916.482
916.482
916.481
916.481
916.481
916.481
916.48
916.48
916.48
916.48
916.48
916.479
916.479
916.479
916.479
916.479
916.479
916.479
916.479
916.48
916.48
916.48
916.48
916.48
916.48
916.48
916.481
916.481
916.481
916.481
916.481
916.482
916.482
916.482
916.482
916.483
916.483
916.483
916.484
916.484
916.484
916.485
916.485
916.485
916.486
916.486
916.486
916.487
916.487
916.488
916.488
916.488
916.489
916.489
916.49
916.49
916.491
916.491
916.492
916.492
916.493
916.493
916.494
916.494
916.495
916.496
916.496
916.497
916.498
916.498
916.499
916.5
916.501
916.502
916.502
916.503
916.504
916.505
916.506
916.507
916.508
916.509
916.51
916.511
916.512
916.513
916.514
916.515
916.516
916.517
916.518
916.519
916.52
916.521
916.522
916.524
916.525
916.526
916.527
916.528
916.529
916.53
916.531
916.532
916.533
916.534
916.535
916.535
916.536
916.537
916.538
916.539
916.539
916.54
916.541
916.541
916.542
916.542
916.543
916.543
916.543
916.544
916.544
916.544
916.544
916.544
916.543
916.543
916.543
916.542
916.542
916.541
916.54
916.54
916.539
916.538
916.536
916.535
916.534
916.532
916.531
916.529
916.527
916.526
916.524
916.522
916.52
916.518
916.516
916.514
916.512
916.51
916.508
916.506
916.504
916.502
916.501
916.499
916.498
916.496
916.495
916.494
916.493
916.492
916.491
916.491
916.491
916.491
916.491
916.491
916.492
916.492
916.493
916.494
916.495
916.496
916.498
916.5
916.501
916.503
916.505
916.507
916.509
916.511
916.513
916.515
916.517
916.519
916.522
916.524
916.526
916.527
916.529
916.531
916.532
916.534
916.535
916.536
916.537
916.538
916.538
916.538
916.539
916.538
916.538
916.538
916.537
916.536
916.535
916.533
916.532
916.53
916.528
916.527
916.525
916.523
916.521
916.519
916.517
916.515
916.513
916.511
916.51
916.509
916.508
916.507
916.506
916.506
916.506
916.506
916.507
916.507
916.508
916.509
916.51
916.511
916.513
916.514
916.515
916.516
916.517
916.518
916.518
916.519
916.518
916.518
916.517
916.516
916.515
916.513
916.511
916.508
916.506
916.504
916.501
916.499
916.497
916.495
916.493
916.492
916.491
916.491
916.491
916.492
916.494
916.496
916.498
916.501
916.505
916.509
916.513
916.517
916.522
916.526
916.53
916.533
916.536
916.539
916.54
916.54
916.54
916.538
916.534
916.529
916.523
916.515
916.506
916.496
916.486
916.475
916.464
916.454
916.445
916.438
916.433
916.431
916.431
916.433
916.438
916.444
916.45
916.456
916.458
916.456
916.448
916.433
916.41
916.379
916.34
916.297
916.25
916.201
916.149
916.09
916.015
915.911
915.766
915.568
915.274
914.661
912.732
905.644
879.188
763.874
581.54
458.871
384.578
342.551
319.587
307.217
300.589
297.043
295.147
294.134
293.593
293.304
293.15
293.067
293.023
293
292.987
292.98
292.977
292.975
292.974
292.974
292.973
292.973
292.973
292.973
292.973
292.973
292.973
292.973
292.973
292.973
292.973
292.974
292.974
292.974
292.974
292.974
292.974
292.974
292.974
292.974
292.974
292.974
292.974
292.974
292.974
292.974
292.974
292.974
292.974
292.974
292.974
292.974
292.974
292.975
292.975
292.975
292.975
292.975
292.975
292.975
292.975
292.975
292.975
292.975
292.975
292.975
292.975
292.975
292.975
292.975
292.975
292.975
292.975
292.975
292.975
292.976
292.976
292.976
292.976
292.976
292.976
292.976
292.976
292.976
292.976
292.976
292.976
292.976
292.976
292.976
292.976
292.976
292.976
292.976
292.976
292.976
292.976
292.977
292.977
292.977
292.977
292.977
292.977
292.977
292.977
292.977
292.977
292.977
292.977
292.977
292.977
292.977
292.977
292.977
292.977
292.977
292.977
292.977
292.977
292.978
292.978
292.978
292.978
292.978
292.978
292.978
292.978
292.978
292.978
292.978
292.978
292.978
292.978
292.978
292.978
292.978
292.978
292.978
292.978
292.978
292.978
292.979
292.979
292.979
292.979
292.979
292.979
292.979
292.979
292.979
292.979
292.979
292.979
292.979
292.979
292.979
292.979
292.979
292.979
292.979
292.979
292.979
292.98
292.98
292.98
292.98
292.98
292.98
292.98
292.98
292.98
292.98
292.98
292.98
292.98
292.98
292.98
292.98
292.98
292.98
292.98
292.98
292.98
292.98
292.981
292.981
292.981
292.981
292.981
292.981
292.981
292.981
292.981
292.981
292.981
292.981
292.981
292.981
292.981
292.981
292.981
292.981
292.981
292.981
292.981
292.981
292.982
292.982
292.982
292.982
292.982
292.982
292.982
292.982
292.982
292.982
292.982
292.982
292.982
292.982
292.982
292.982
292.982
292.982
292.982
292.982
292.982
292.982
292.983
292.983
292.983
292.983
292.983
292.983
292.983
292.983
292.983
292.983
292.983
292.983
292.983
292.983
292.983
292.983
292.983
292.983
292.983
292.983
292.983
292.984
292.984
292.984
292.984
292.984
292.984
292.984
292.984
292.984
292.984
292.984
292.984
292.984
292.984
292.984
292.984
292.984
292.984
292.984
292.984
292.984
292.984
292.985
292.985
292.985
292.985
292.985
292.985
292.985
292.985
292.985
292.985
292.985
292.985
292.985
292.985
292.985
292.985
292.985
292.985
292.985
292.985
292.985
292.985
292.986
292.986
292.986
292.986
292.986
292.986
292.986
292.986
292.986
292.986
292.986
292.986
292.986
292.986
292.986
292.986
292.986
292.986
292.986
292.986
292.986
292.986
292.987
292.987
292.987
292.987
292.987
292.987
292.987
292.987
292.987
292.987
292.987
292.987
292.987
292.987
292.987
292.987
292.987
292.987
292.987
292.987
292.987
292.988
292.988
292.988
292.988
292.988
292.988
292.988
292.988
292.988
292.988
292.988
292.988
292.988
292.988
292.988
292.988
292.988
292.988
292.988
292.988
292.988
292.989
292.989
292.989
292.989
292.989
292.989
292.989
292.989
292.989
292.989
292.989
292.989
292.989
292.989
292.989
292.989
292.989
292.989
292.989
292.989
292.989
292.989
292.99
292.99
292.99
292.99
292.99
292.99
292.99
292.99
292.99
292.99
292.99
292.99
292.99
)
;

boundaryField
{
    fixedWall
    {
        type            fixedValue;
        value           uniform 293;
    }
    outlet
    {
        type            inletOutlet;
        inletValue      uniform 293;
        value           uniform 292.99;
    }
    defaultFaces
    {
        type            empty;
    }
}


// ************************************************************************* //
