/*--------------------------------*- C++ -*----------------------------------*\
| =========                 |                                                 |
| \\      /  F ield         | OpenFOAM: The Open Source CFD Toolbox           |
|  \\    /   O peration     | Version:  2406                                  |
|   \\  /    A nd           | Website:  www.openfoam.com                      |
|    \\/     M anipulation  |                                                 |
\*---------------------------------------------------------------------------*/
FoamFile
{
    version     2.0;
    format      ascii;
    arch        "LSB;label=32;scalar=64";
    class       volScalarField;
    location    "12.7";
    object      O2;
}
// * * * * * * * * * * * * * * * * * * * * * * * * * * * * * * * * * * * * * //

dimensions      [0 0 0 0 0 0 0];

internalField   nonuniform List<scalar> 
1000
(
1.04915e-06
1.04763e-06
1.04485e-06
1.04099e-06
1.0362e-06
1.0306e-06
1.02428e-06
1.01732e-06
1.00978e-06
1.00173e-06
9.93207e-07
9.8426e-07
9.74927e-07
9.65242e-07
9.55239e-07
9.44945e-07
9.34386e-07
9.23588e-07
9.12572e-07
9.0136e-07
8.8997e-07
8.78422e-07
8.66733e-07
8.54918e-07
8.42994e-07
8.30976e-07
8.18876e-07
8.0671e-07
7.9449e-07
7.82228e-07
7.69937e-07
7.57628e-07
7.45314e-07
7.33004e-07
7.20711e-07
7.08444e-07
6.96214e-07
6.8403e-07
6.71903e-07
6.59842e-07
6.47857e-07
6.35955e-07
6.24146e-07
6.12438e-07
6.00839e-07
5.89357e-07
5.78e-07
5.66773e-07
5.55684e-07
5.4474e-07
5.33945e-07
5.23306e-07
5.12828e-07
5.02516e-07
4.92373e-07
4.82404e-07
4.72613e-07
4.63002e-07
4.53574e-07
4.44332e-07
4.35278e-07
4.26413e-07
4.17738e-07
4.09255e-07
4.00964e-07
3.92866e-07
3.84959e-07
3.77244e-07
3.6972e-07
3.62386e-07
3.55242e-07
3.48285e-07
3.41513e-07
3.34926e-07
3.28521e-07
3.22295e-07
3.16247e-07
3.10373e-07
3.04672e-07
2.9914e-07
2.93775e-07
2.88573e-07
2.83531e-07
2.78647e-07
2.73917e-07
2.69338e-07
2.64907e-07
2.6062e-07
2.56474e-07
2.52466e-07
2.48592e-07
2.44849e-07
2.41234e-07
2.37743e-07
2.34374e-07
2.31123e-07
2.27986e-07
2.24961e-07
2.22045e-07
2.19233e-07
2.16524e-07
2.13915e-07
2.11402e-07
2.08982e-07
2.06653e-07
2.04411e-07
2.02255e-07
2.00181e-07
1.98187e-07
1.9627e-07
1.94428e-07
1.92658e-07
1.90958e-07
1.89326e-07
1.87759e-07
1.86255e-07
1.84812e-07
1.83428e-07
1.82101e-07
1.80829e-07
1.7961e-07
1.78442e-07
1.77323e-07
1.76252e-07
1.75226e-07
1.74245e-07
1.73307e-07
1.72409e-07
1.71551e-07
1.70731e-07
1.69948e-07
1.69201e-07
1.68487e-07
1.67806e-07
1.67156e-07
1.66537e-07
1.65947e-07
1.65385e-07
1.6485e-07
1.64341e-07
1.63857e-07
1.63397e-07
1.6296e-07
1.62545e-07
1.62152e-07
1.61779e-07
1.61425e-07
1.6109e-07
1.60774e-07
1.60475e-07
1.60192e-07
1.59926e-07
1.59674e-07
1.59438e-07
1.59216e-07
1.59007e-07
1.58811e-07
1.58628e-07
1.58457e-07
1.58297e-07
1.58148e-07
1.5801e-07
1.57882e-07
1.57763e-07
1.57654e-07
1.57554e-07
1.57462e-07
1.57379e-07
1.57303e-07
1.57234e-07
1.57173e-07
1.57119e-07
1.57071e-07
1.5703e-07
1.56994e-07
1.56964e-07
1.5694e-07
1.56921e-07
1.56907e-07
1.56898e-07
1.56893e-07
1.56893e-07
1.56897e-07
1.56905e-07
1.56917e-07
1.56932e-07
1.56951e-07
1.56973e-07
1.56999e-07
1.57028e-07
1.57059e-07
1.57093e-07
1.5713e-07
1.5717e-07
1.57211e-07
1.57256e-07
1.57302e-07
1.57351e-07
1.57401e-07
1.57454e-07
1.57508e-07
1.57565e-07
1.57622e-07
1.57682e-07
1.57743e-07
1.57805e-07
1.57869e-07
1.57934e-07
1.58e-07
1.58068e-07
1.58137e-07
1.58207e-07
1.58277e-07
1.58349e-07
1.58422e-07
1.58496e-07
1.5857e-07
1.58646e-07
1.58722e-07
1.58799e-07
1.58877e-07
1.58955e-07
1.59034e-07
1.59114e-07
1.59194e-07
1.59275e-07
1.59356e-07
1.59438e-07
1.5952e-07
1.59603e-07
1.59687e-07
1.5977e-07
1.59855e-07
1.59939e-07
1.60024e-07
1.60109e-07
1.60195e-07
1.60281e-07
1.60367e-07
1.60454e-07
1.60541e-07
1.60628e-07
1.60715e-07
1.60803e-07
1.60891e-07
1.60979e-07
1.61067e-07
1.61156e-07
1.61245e-07
1.61334e-07
1.61423e-07
1.61512e-07
1.61602e-07
1.61692e-07
1.61782e-07
1.61872e-07
1.61962e-07
1.62052e-07
1.62143e-07
1.62234e-07
1.62324e-07
1.62415e-07
1.62506e-07
1.62598e-07
1.62689e-07
1.6278e-07
1.62872e-07
1.62964e-07
1.63056e-07
1.63147e-07
1.6324e-07
1.63332e-07
1.63424e-07
1.63516e-07
1.63609e-07
1.63701e-07
1.63794e-07
1.63887e-07
1.6398e-07
1.64072e-07
1.64166e-07
1.64259e-07
1.64352e-07
1.64445e-07
1.64539e-07
1.64632e-07
1.64726e-07
1.64819e-07
1.64913e-07
1.65007e-07
1.65101e-07
1.65195e-07
1.65289e-07
1.65383e-07
1.65477e-07
1.65572e-07
1.65666e-07
1.65761e-07
1.65855e-07
1.6595e-07
1.66045e-07
1.6614e-07
1.66235e-07
1.6633e-07
1.66425e-07
1.6652e-07
1.66616e-07
1.66711e-07
1.66806e-07
1.66902e-07
1.66998e-07
1.67094e-07
1.67189e-07
1.67285e-07
1.67381e-07
1.67478e-07
1.67574e-07
1.6767e-07
1.67767e-07
1.67863e-07
1.6796e-07
1.68057e-07
1.68153e-07
1.6825e-07
1.68347e-07
1.68444e-07
1.68542e-07
1.68639e-07
1.68736e-07
1.68834e-07
1.68931e-07
1.69029e-07
1.69127e-07
1.69225e-07
1.69323e-07
1.69421e-07
1.69519e-07
1.69618e-07
1.69716e-07
1.69815e-07
1.69913e-07
1.70012e-07
1.70111e-07
1.7021e-07
1.70309e-07
1.70408e-07
1.70507e-07
1.70607e-07
1.70706e-07
1.70806e-07
1.70906e-07
1.71006e-07
1.71106e-07
1.71206e-07
1.71306e-07
1.71406e-07
1.71507e-07
1.71607e-07
1.71708e-07
1.71809e-07
1.7191e-07
1.72011e-07
1.72112e-07
1.72213e-07
1.72315e-07
1.72416e-07
1.72518e-07
1.7262e-07
1.72722e-07
1.72824e-07
1.72926e-07
1.73028e-07
1.7313e-07
1.73233e-07
1.73336e-07
1.73438e-07
1.73541e-07
1.73644e-07
1.73747e-07
1.73851e-07
1.73954e-07
1.74058e-07
1.74161e-07
1.74265e-07
1.74369e-07
1.74473e-07
1.74577e-07
1.74681e-07
1.74786e-07
1.7489e-07
1.74995e-07
1.751e-07
1.75205e-07
1.7531e-07
1.75415e-07
1.7552e-07
1.75626e-07
1.75732e-07
1.75837e-07
1.75943e-07
1.76049e-07
1.76155e-07
1.76262e-07
1.76368e-07
1.76475e-07
1.76581e-07
1.76688e-07
1.76795e-07
1.76902e-07
1.77009e-07
1.77117e-07
1.77224e-07
1.77332e-07
1.77439e-07
1.77547e-07
1.77655e-07
1.77763e-07
1.77871e-07
1.7798e-07
1.78088e-07
1.78197e-07
1.78306e-07
1.78415e-07
1.78524e-07
1.78633e-07
1.78742e-07
1.78852e-07
1.78962e-07
1.79071e-07
1.79181e-07
1.79291e-07
1.79401e-07
1.79512e-07
1.79622e-07
1.79733e-07
1.79843e-07
1.79954e-07
1.80065e-07
1.80176e-07
1.80288e-07
1.80399e-07
1.8051e-07
1.80622e-07
1.80734e-07
1.80846e-07
1.80958e-07
1.8107e-07
1.81183e-07
1.81295e-07
1.81408e-07
1.8152e-07
1.81633e-07
1.81746e-07
1.8186e-07
1.81973e-07
1.82087e-07
1.822e-07
1.82314e-07
1.82428e-07
1.82542e-07
1.82656e-07
1.8277e-07
1.82885e-07
1.83e-07
1.83114e-07
1.83229e-07
1.83344e-07
1.8346e-07
1.83575e-07
1.8369e-07
1.83806e-07
1.83922e-07
1.84038e-07
1.84154e-07
1.8427e-07
1.84386e-07
1.84503e-07
1.8462e-07
1.84736e-07
1.84853e-07
1.84971e-07
1.85088e-07
1.85205e-07
1.85323e-07
1.85441e-07
1.85558e-07
1.85677e-07
1.85795e-07
1.85913e-07
1.86032e-07
1.8615e-07
1.86269e-07
1.86388e-07
1.86507e-07
1.86626e-07
1.86746e-07
1.86865e-07
1.86985e-07
1.87105e-07
1.87225e-07
1.87345e-07
1.87465e-07
1.87586e-07
1.87706e-07
1.87827e-07
1.87948e-07
1.88069e-07
1.8819e-07
1.88312e-07
1.88433e-07
1.88555e-07
1.88677e-07
1.88799e-07
1.88921e-07
1.89044e-07
1.89166e-07
1.89289e-07
1.89412e-07
1.89535e-07
1.89658e-07
1.89781e-07
1.89905e-07
1.90028e-07
1.90152e-07
1.90276e-07
1.904e-07
1.90524e-07
1.90649e-07
1.90773e-07
1.90898e-07
1.91023e-07
1.91148e-07
1.91273e-07
1.91399e-07
1.91524e-07
1.9165e-07
1.91776e-07
1.91902e-07
1.92028e-07
1.92155e-07
1.92281e-07
1.92408e-07
1.92535e-07
1.92662e-07
1.92789e-07
1.92917e-07
1.93044e-07
1.93172e-07
1.933e-07
1.93428e-07
1.93556e-07
1.93684e-07
1.93813e-07
1.93942e-07
1.94071e-07
1.942e-07
1.94329e-07
1.94458e-07
1.94588e-07
1.94718e-07
1.94848e-07
1.94978e-07
1.95108e-07
1.95238e-07
1.95369e-07
1.955e-07
1.95631e-07
1.95762e-07
1.95893e-07
1.96025e-07
1.96156e-07
1.96288e-07
1.9642e-07
1.96552e-07
1.96685e-07
1.96817e-07
1.9695e-07
1.97083e-07
1.97216e-07
1.97349e-07
1.97483e-07
1.97616e-07
1.9775e-07
1.97884e-07
1.98018e-07
1.98152e-07
1.98287e-07
1.98422e-07
1.98557e-07
1.98692e-07
1.98827e-07
1.98962e-07
1.99098e-07
1.99234e-07
1.9937e-07
1.99506e-07
1.99643e-07
1.99779e-07
1.99916e-07
2.00053e-07
2.0019e-07
2.00327e-07
2.00465e-07
2.00603e-07
2.0074e-07
2.00879e-07
2.01017e-07
2.01155e-07
2.01294e-07
2.01433e-07
2.01572e-07
2.01711e-07
2.01851e-07
2.0199e-07
2.0213e-07
2.0227e-07
2.0241e-07
2.02551e-07
2.02692e-07
2.02832e-07
2.02973e-07
2.03115e-07
2.03256e-07
2.03398e-07
2.0354e-07
2.03682e-07
2.03824e-07
2.03965e-07
2.04108e-07
2.04251e-07
2.04394e-07
2.04537e-07
2.04681e-07
2.04825e-07
2.04968e-07
2.05113e-07
2.05257e-07
2.05401e-07
2.05546e-07
2.05691e-07
2.05836e-07
2.05982e-07
2.06127e-07
2.06273e-07
2.06419e-07
2.06565e-07
2.06711e-07
2.06858e-07
2.07005e-07
2.07152e-07
2.07299e-07
2.07446e-07
2.07594e-07
2.07742e-07
2.0789e-07
2.08038e-07
2.08187e-07
2.08335e-07
2.08484e-07
2.08633e-07
2.08782e-07
2.08931e-07
2.09081e-07
2.09231e-07
2.09381e-07
2.09531e-07
2.09682e-07
2.09832e-07
2.09983e-07
2.10134e-07
2.10286e-07
2.10437e-07
2.10589e-07
2.10741e-07
2.10893e-07
2.11046e-07
2.11199e-07
2.11351e-07
2.11504e-07
2.11658e-07
2.11811e-07
2.11965e-07
2.12119e-07
2.12273e-07
2.12427e-07
2.12582e-07
2.12737e-07
2.12892e-07
2.13047e-07
2.13203e-07
2.13358e-07
2.13514e-07
2.1367e-07
2.13827e-07
2.13983e-07
2.1414e-07
2.14297e-07
2.14455e-07
2.14612e-07
2.1477e-07
2.14928e-07
2.15086e-07
2.15245e-07
2.15403e-07
2.15562e-07
2.1572e-07
2.1588e-07
2.16039e-07
2.16199e-07
2.16359e-07
2.16519e-07
2.1668e-07
2.16841e-07
2.17001e-07
2.17163e-07
2.17324e-07
2.17486e-07
2.17648e-07
2.1781e-07
2.17972e-07
2.18135e-07
2.18298e-07
2.1846e-07
2.18624e-07
2.18787e-07
2.18951e-07
2.19115e-07
2.1928e-07
2.19444e-07
2.19609e-07
2.19774e-07
2.1994e-07
2.20106e-07
2.20272e-07
2.20438e-07
2.20604e-07
2.20771e-07
2.20938e-07
2.21105e-07
2.21273e-07
2.21441e-07
2.21609e-07
2.21777e-07
2.21946e-07
2.22115e-07
2.22284e-07
2.22454e-07
2.22624e-07
2.22794e-07
2.22964e-07
2.23135e-07
2.23306e-07
2.23477e-07
2.23649e-07
2.23821e-07
2.23993e-07
2.24166e-07
2.24339e-07
2.24512e-07
2.24686e-07
2.2486e-07
2.25034e-07
2.25209e-07
2.25384e-07
2.25559e-07
2.25735e-07
2.25911e-07
2.26088e-07
2.26264e-07
2.26442e-07
2.2662e-07
2.26798e-07
2.26977e-07
2.27156e-07
2.27335e-07
2.27516e-07
2.27696e-07
2.27877e-07
2.28059e-07
2.28241e-07
2.28424e-07
2.28608e-07
2.28792e-07
2.28977e-07
2.29163e-07
2.29349e-07
2.29536e-07
2.29724e-07
2.29913e-07
2.30102e-07
2.30293e-07
2.30485e-07
2.30677e-07
2.30871e-07
2.31066e-07
2.31262e-07
2.3146e-07
2.31658e-07
2.31859e-07
2.32061e-07
2.32264e-07
2.32469e-07
2.32676e-07
2.32885e-07
2.33096e-07
2.3331e-07
2.33525e-07
2.33743e-07
2.33964e-07
2.34187e-07
2.34414e-07
2.34643e-07
2.34876e-07
2.35112e-07
2.35353e-07
2.35597e-07
2.35845e-07
2.36098e-07
2.36355e-07
2.36618e-07
2.36886e-07
2.37159e-07
2.37439e-07
2.37725e-07
2.38018e-07
2.38318e-07
2.38626e-07
2.38942e-07
2.39266e-07
2.396e-07
2.39943e-07
2.40297e-07
2.40661e-07
2.41037e-07
2.41425e-07
2.41826e-07
2.42241e-07
2.4267e-07
2.43114e-07
2.43574e-07
2.44052e-07
2.44547e-07
2.45062e-07
2.45597e-07
2.46153e-07
2.46731e-07
2.47334e-07
2.47961e-07
2.48614e-07
2.49296e-07
2.50007e-07
2.50749e-07
2.51523e-07
2.52332e-07
2.53177e-07
2.5406e-07
2.54983e-07
2.55948e-07
2.56958e-07
2.58014e-07
2.59119e-07
2.60276e-07
2.61486e-07
2.62754e-07
2.64081e-07
2.6547e-07
2.66925e-07
2.68449e-07
2.70044e-07
2.71715e-07
2.73465e-07
2.75298e-07
2.77217e-07
2.79227e-07
2.81331e-07
2.83534e-07
2.85841e-07
2.88255e-07
2.90782e-07
2.93426e-07
2.96193e-07
2.99088e-07
3.02115e-07
3.05281e-07
3.08591e-07
3.12051e-07
3.15667e-07
3.19445e-07
3.23391e-07
3.27512e-07
3.31814e-07
3.36304e-07
3.40988e-07
3.45874e-07
3.50968e-07
3.56278e-07
3.61811e-07
3.67573e-07
3.73573e-07
3.79817e-07
3.86313e-07
3.93069e-07
4.0009e-07
4.07385e-07
4.14961e-07
4.22824e-07
4.30982e-07
4.3944e-07
4.48206e-07
4.57285e-07
4.66682e-07
4.76404e-07
4.86454e-07
4.96837e-07
5.07557e-07
5.18616e-07
5.30016e-07
5.41759e-07
5.53845e-07
5.66274e-07
5.79044e-07
5.92151e-07
6.05591e-07
6.19359e-07
6.33446e-07
6.47846e-07
6.62545e-07
6.77532e-07
6.92792e-07
7.08309e-07
7.24063e-07
7.40034e-07
7.56197e-07
7.72526e-07
7.88992e-07
8.05565e-07
8.2221e-07
8.3889e-07
8.55565e-07
8.72194e-07
8.8873e-07
9.05127e-07
9.21333e-07
9.37296e-07
9.52959e-07
9.68266e-07
9.83157e-07
9.97569e-07
1.01144e-06
1.0247e-06
1.03729e-06
1.04914e-06
1.06018e-06
1.07035e-06
1.07957e-06
1.08778e-06
1.09491e-06
1.1009e-06
1.10568e-06
1.10919e-06
1.11136e-06
1.11214e-06
1.11148e-06
1.10933e-06
1.10564e-06
1.10035e-06
1.09344e-06
1.08485e-06
1.07455e-06
1.06253e-06
1.04874e-06
1.03317e-06
1.01581e-06
9.96638e-07
9.75655e-07
9.52861e-07
9.2826e-07
9.01867e-07
8.73699e-07
8.43783e-07
8.12152e-07
7.78849e-07
7.43925e-07
7.0744e-07
6.69466e-07
6.30086e-07
5.89396e-07
5.47506e-07
5.04542e-07
4.60648e-07
4.15986e-07
3.70742e-07
3.25122e-07
2.79362e-07
2.33724e-07
1.88501e-07
1.4402e-07
1.00641e-07
5.87561e-08
1.87925e-08
)
;

boundaryField
{
    fixedWall
    {
        type            zeroGradient;
    }
    outlet
    {
        type            inletOutlet;
        inletValue      uniform 0;
        value           uniform 0;
    }
    defaultFaces
    {
        type            empty;
    }
}


// ************************************************************************* //
