/*--------------------------------*- C++ -*----------------------------------*\
| =========                 |                                                 |
| \\      /  F ield         | OpenFOAM: The Open Source CFD Toolbox           |
|  \\    /   O peration     | Version:  2406                                  |
|   \\  /    A nd           | Website:  www.openfoam.com                      |
|    \\/     M anipulation  |                                                 |
\*---------------------------------------------------------------------------*/
FoamFile
{
    version     2.0;
    format      ascii;
    arch        "LSB;label=32;scalar=64";
    class       surfaceScalarField;
    location    "12.7";
    object      phi;
}
// * * * * * * * * * * * * * * * * * * * * * * * * * * * * * * * * * * * * * //

dimensions      [1 0 -1 0 0 0 0];

oriented        oriented;

internalField   nonuniform List<scalar> 
999
(
-1.28114e-08
-4.33761e-08
-8.55553e-08
-1.35509e-07
-1.90713e-07
-2.49461e-07
-3.10569e-07
-3.73209e-07
-4.36761e-07
-5.00796e-07
-5.64986e-07
-6.29085e-07
-6.92912e-07
-7.56327e-07
-8.19231e-07
-8.81547e-07
-9.43208e-07
-1.00418e-06
-1.06443e-06
-1.12393e-06
-1.18267e-06
-1.24064e-06
-1.29783e-06
-1.35424e-06
-1.40988e-06
-1.46473e-06
-1.51881e-06
-1.57213e-06
-1.62468e-06
-1.67648e-06
-1.72752e-06
-1.77783e-06
-1.82741e-06
-1.87626e-06
-1.9244e-06
-1.97183e-06
-2.01857e-06
-2.06461e-06
-2.10997e-06
-2.15466e-06
-2.19868e-06
-2.24205e-06
-2.28477e-06
-2.32685e-06
-2.36829e-06
-2.4091e-06
-2.4493e-06
-2.48888e-06
-2.52787e-06
-2.56625e-06
-2.60404e-06
-2.64125e-06
-2.67788e-06
-2.71394e-06
-2.74944e-06
-2.78438e-06
-2.81877e-06
-2.85261e-06
-2.88591e-06
-2.91868e-06
-2.95092e-06
-2.98264e-06
-3.01384e-06
-3.04453e-06
-3.07471e-06
-3.10439e-06
-3.13358e-06
-3.16228e-06
-3.1905e-06
-3.21824e-06
-3.2455e-06
-3.2723e-06
-3.29863e-06
-3.32451e-06
-3.34993e-06
-3.3749e-06
-3.39943e-06
-3.42353e-06
-3.44718e-06
-3.47041e-06
-3.49322e-06
-3.51561e-06
-3.53759e-06
-3.55915e-06
-3.58031e-06
-3.60107e-06
-3.62144e-06
-3.64142e-06
-3.66101e-06
-3.68022e-06
-3.69906e-06
-3.71752e-06
-3.73562e-06
-3.75336e-06
-3.77074e-06
-3.78776e-06
-3.80444e-06
-3.82077e-06
-3.83677e-06
-3.85243e-06
-3.86776e-06
-3.88276e-06
-3.89745e-06
-3.91182e-06
-3.92588e-06
-3.93962e-06
-3.95307e-06
-3.96622e-06
-3.97907e-06
-3.99164e-06
-4.00392e-06
-4.01592e-06
-4.02764e-06
-4.0391e-06
-4.05028e-06
-4.0612e-06
-4.07186e-06
-4.08227e-06
-4.09242e-06
-4.10233e-06
-4.112e-06
-4.12143e-06
-4.13063e-06
-4.1396e-06
-4.14834e-06
-4.15686e-06
-4.16516e-06
-4.17325e-06
-4.18113e-06
-4.1888e-06
-4.19627e-06
-4.20355e-06
-4.21063e-06
-4.21752e-06
-4.22422e-06
-4.23075e-06
-4.23709e-06
-4.24326e-06
-4.24926e-06
-4.25509e-06
-4.26075e-06
-4.26626e-06
-4.27161e-06
-4.2768e-06
-4.28184e-06
-4.28674e-06
-4.29149e-06
-4.29611e-06
-4.30058e-06
-4.30492e-06
-4.30913e-06
-4.31322e-06
-4.31718e-06
-4.32101e-06
-4.32473e-06
-4.32833e-06
-4.33182e-06
-4.3352e-06
-4.33848e-06
-4.34165e-06
-4.34471e-06
-4.34768e-06
-4.35056e-06
-4.35334e-06
-4.35603e-06
-4.35864e-06
-4.36115e-06
-4.36359e-06
-4.36594e-06
-4.36821e-06
-4.37039e-06
-4.3725e-06
-4.37455e-06
-4.37652e-06
-4.37841e-06
-4.38025e-06
-4.38201e-06
-4.38371e-06
-4.38533e-06
-4.38691e-06
-4.38843e-06
-4.3899e-06
-4.39131e-06
-4.39268e-06
-4.39399e-06
-4.39525e-06
-4.39647e-06
-4.39765e-06
-4.39877e-06
-4.39986e-06
-4.4009e-06
-4.40189e-06
-4.40285e-06
-4.40378e-06
-4.40467e-06
-4.40554e-06
-4.40637e-06
-4.40716e-06
-4.40792e-06
-4.40865e-06
-4.40935e-06
-4.41003e-06
-4.41067e-06
-4.41129e-06
-4.41188e-06
-4.41245e-06
-4.413e-06
-4.41352e-06
-4.41402e-06
-4.4145e-06
-4.41495e-06
-4.41539e-06
-4.41581e-06
-4.41621e-06
-4.4166e-06
-4.41696e-06
-4.41732e-06
-4.41765e-06
-4.41797e-06
-4.41828e-06
-4.41857e-06
-4.41885e-06
-4.41912e-06
-4.41937e-06
-4.41961e-06
-4.41985e-06
-4.42007e-06
-4.42028e-06
-4.42048e-06
-4.42067e-06
-4.42085e-06
-4.42102e-06
-4.42119e-06
-4.42135e-06
-4.4215e-06
-4.42164e-06
-4.42177e-06
-4.4219e-06
-4.42203e-06
-4.42214e-06
-4.42225e-06
-4.42236e-06
-4.42246e-06
-4.42255e-06
-4.42264e-06
-4.42272e-06
-4.42281e-06
-4.42288e-06
-4.42295e-06
-4.42302e-06
-4.42308e-06
-4.42315e-06
-4.4232e-06
-4.42326e-06
-4.42331e-06
-4.42336e-06
-4.4234e-06
-4.42344e-06
-4.42348e-06
-4.42352e-06
-4.42356e-06
-4.42359e-06
-4.42362e-06
-4.42365e-06
-4.42368e-06
-4.4237e-06
-4.42373e-06
-4.42375e-06
-4.42377e-06
-4.42379e-06
-4.42381e-06
-4.42382e-06
-4.42384e-06
-4.42385e-06
-4.42387e-06
-4.42388e-06
-4.42389e-06
-4.4239e-06
-4.42391e-06
-4.42392e-06
-4.42392e-06
-4.42393e-06
-4.42394e-06
-4.42394e-06
-4.42394e-06
-4.42395e-06
-4.42395e-06
-4.42396e-06
-4.42396e-06
-4.42396e-06
-4.42396e-06
-4.42396e-06
-4.42397e-06
-4.42397e-06
-4.42397e-06
-4.42397e-06
-4.42397e-06
-4.42396e-06
-4.42396e-06
-4.42396e-06
-4.42396e-06
-4.42396e-06
-4.42396e-06
-4.42396e-06
-4.42396e-06
-4.42395e-06
-4.42395e-06
-4.42395e-06
-4.42395e-06
-4.42394e-06
-4.42394e-06
-4.42394e-06
-4.42394e-06
-4.42393e-06
-4.42393e-06
-4.42393e-06
-4.42392e-06
-4.42392e-06
-4.42392e-06
-4.42391e-06
-4.42391e-06
-4.42391e-06
-4.4239e-06
-4.4239e-06
-4.4239e-06
-4.4239e-06
-4.42389e-06
-4.42389e-06
-4.42389e-06
-4.42388e-06
-4.42388e-06
-4.42388e-06
-4.42387e-06
-4.42387e-06
-4.42387e-06
-4.42386e-06
-4.42386e-06
-4.42386e-06
-4.42386e-06
-4.42385e-06
-4.42385e-06
-4.42385e-06
-4.42385e-06
-4.42384e-06
-4.42384e-06
-4.42384e-06
-4.42384e-06
-4.42384e-06
-4.42383e-06
-4.42383e-06
-4.42383e-06
-4.42383e-06
-4.42383e-06
-4.42383e-06
-4.42383e-06
-4.42382e-06
-4.42382e-06
-4.42382e-06
-4.42382e-06
-4.42382e-06
-4.42382e-06
-4.42382e-06
-4.42381e-06
-4.42381e-06
-4.42381e-06
-4.42381e-06
-4.42381e-06
-4.42381e-06
-4.42381e-06
-4.42381e-06
-4.42381e-06
-4.42381e-06
-4.42381e-06
-4.42381e-06
-4.42381e-06
-4.42381e-06
-4.42381e-06
-4.42381e-06
-4.42381e-06
-4.42381e-06
-4.42381e-06
-4.42381e-06
-4.42381e-06
-4.42381e-06
-4.42381e-06
-4.42381e-06
-4.42381e-06
-4.42381e-06
-4.42381e-06
-4.42381e-06
-4.42381e-06
-4.42381e-06
-4.42381e-06
-4.42381e-06
-4.42381e-06
-4.42381e-06
-4.42381e-06
-4.42381e-06
-4.42381e-06
-4.42381e-06
-4.42382e-06
-4.42382e-06
-4.42382e-06
-4.42382e-06
-4.42382e-06
-4.42382e-06
-4.42382e-06
-4.42382e-06
-4.42382e-06
-4.42382e-06
-4.42382e-06
-4.42382e-06
-4.42382e-06
-4.42382e-06
-4.42382e-06
-4.42382e-06
-4.42382e-06
-4.42383e-06
-4.42383e-06
-4.42383e-06
-4.42383e-06
-4.42383e-06
-4.42383e-06
-4.42383e-06
-4.42383e-06
-4.42383e-06
-4.42383e-06
-4.42383e-06
-4.42383e-06
-4.42383e-06
-4.42383e-06
-4.42383e-06
-4.42383e-06
-4.42383e-06
-4.42383e-06
-4.42383e-06
-4.42383e-06
-4.42383e-06
-4.42383e-06
-4.42383e-06
-4.42383e-06
-4.42383e-06
-4.42383e-06
-4.42383e-06
-4.42383e-06
-4.42383e-06
-4.42383e-06
-4.42383e-06
-4.42383e-06
-4.42383e-06
-4.42383e-06
-4.42383e-06
-4.42383e-06
-4.42383e-06
-4.42383e-06
-4.42383e-06
-4.42383e-06
-4.42383e-06
-4.42383e-06
-4.42383e-06
-4.42383e-06
-4.42383e-06
-4.42383e-06
-4.42383e-06
-4.42383e-06
-4.42383e-06
-4.42383e-06
-4.42383e-06
-4.42383e-06
-4.42383e-06
-4.42383e-06
-4.42383e-06
-4.42383e-06
-4.42383e-06
-4.42383e-06
-4.42383e-06
-4.42383e-06
-4.42383e-06
-4.42383e-06
-4.42383e-06
-4.42383e-06
-4.42383e-06
-4.42383e-06
-4.42383e-06
-4.42383e-06
-4.42383e-06
-4.42383e-06
-4.42383e-06
-4.42383e-06
-4.42383e-06
-4.42383e-06
-4.42382e-06
-4.42382e-06
-4.42382e-06
-4.42382e-06
-4.42382e-06
-4.42382e-06
-4.42382e-06
-4.42382e-06
-4.42382e-06
-4.42382e-06
-4.42382e-06
-4.42382e-06
-4.42382e-06
-4.42382e-06
-4.42382e-06
-4.42382e-06
-4.42382e-06
-4.42382e-06
-4.42382e-06
-4.42382e-06
-4.42382e-06
-4.42382e-06
-4.42382e-06
-4.42382e-06
-4.42382e-06
-4.42382e-06
-4.42382e-06
-4.42382e-06
-4.42382e-06
-4.42382e-06
-4.42381e-06
-4.42381e-06
-4.42381e-06
-4.42381e-06
-4.42381e-06
-4.42381e-06
-4.42381e-06
-4.42381e-06
-4.42381e-06
-4.42381e-06
-4.42381e-06
-4.42381e-06
-4.42381e-06
-4.42381e-06
-4.42381e-06
-4.42381e-06
-4.42381e-06
-4.42381e-06
-4.4238e-06
-4.4238e-06
-4.4238e-06
-4.4238e-06
-4.4238e-06
-4.4238e-06
-4.4238e-06
-4.4238e-06
-4.4238e-06
-4.4238e-06
-4.4238e-06
-4.4238e-06
-4.4238e-06
-4.42379e-06
-4.42379e-06
-4.42379e-06
-4.42379e-06
-4.42379e-06
-4.42379e-06
-4.42379e-06
-4.42379e-06
-4.42379e-06
-4.42379e-06
-4.42379e-06
-4.42379e-06
-4.42379e-06
-4.42379e-06
-4.42379e-06
-4.42379e-06
-4.42379e-06
-4.42379e-06
-4.42379e-06
-4.42378e-06
-4.42379e-06
-4.42379e-06
-4.42378e-06
-4.42378e-06
-4.42378e-06
-4.42378e-06
-4.42378e-06
-4.42378e-06
-4.42378e-06
-4.42378e-06
-4.42378e-06
-4.42378e-06
-4.42378e-06
-4.42378e-06
-4.42378e-06
-4.42378e-06
-4.42378e-06
-4.42378e-06
-4.42378e-06
-4.42378e-06
-4.42378e-06
-4.42378e-06
-4.42378e-06
-4.42378e-06
-4.42378e-06
-4.42378e-06
-4.42378e-06
-4.42378e-06
-4.42378e-06
-4.42378e-06
-4.42378e-06
-4.42378e-06
-4.42378e-06
-4.42378e-06
-4.42378e-06
-4.42378e-06
-4.42378e-06
-4.42378e-06
-4.42378e-06
-4.42378e-06
-4.42378e-06
-4.42378e-06
-4.42378e-06
-4.42378e-06
-4.42378e-06
-4.42378e-06
-4.42378e-06
-4.42378e-06
-4.42378e-06
-4.42378e-06
-4.42378e-06
-4.42378e-06
-4.42378e-06
-4.42378e-06
-4.42378e-06
-4.42378e-06
-4.42378e-06
-4.42378e-06
-4.42378e-06
-4.42378e-06
-4.42378e-06
-4.42378e-06
-4.42378e-06
-4.42378e-06
-4.42378e-06
-4.42378e-06
-4.42378e-06
-4.42378e-06
-4.42378e-06
-4.42378e-06
-4.42378e-06
-4.42378e-06
-4.42378e-06
-4.42378e-06
-4.42378e-06
-4.42378e-06
-4.42378e-06
-4.42378e-06
-4.42378e-06
-4.42378e-06
-4.42378e-06
-4.42378e-06
-4.42378e-06
-4.42377e-06
-4.42377e-06
-4.42377e-06
-4.42377e-06
-4.42377e-06
-4.42377e-06
-4.42377e-06
-4.42377e-06
-4.42377e-06
-4.42377e-06
-4.42376e-06
-4.42376e-06
-4.42376e-06
-4.42376e-06
-4.42376e-06
-4.42376e-06
-4.42376e-06
-4.42376e-06
-4.42376e-06
-4.42375e-06
-4.42375e-06
-4.42375e-06
-4.42375e-06
-4.42375e-06
-4.42375e-06
-4.42375e-06
-4.42374e-06
-4.42374e-06
-4.42374e-06
-4.42374e-06
-4.42374e-06
-4.42374e-06
-4.42374e-06
-4.42374e-06
-4.42374e-06
-4.42373e-06
-4.42373e-06
-4.42373e-06
-4.42373e-06
-4.42373e-06
-4.42373e-06
-4.42373e-06
-4.42373e-06
-4.42373e-06
-4.42373e-06
-4.42373e-06
-4.42372e-06
-4.42372e-06
-4.42372e-06
-4.42372e-06
-4.42372e-06
-4.42372e-06
-4.42372e-06
-4.42372e-06
-4.42372e-06
-4.42372e-06
-4.42372e-06
-4.42372e-06
-4.42372e-06
-4.42372e-06
-4.42372e-06
-4.42372e-06
-4.42373e-06
-4.42373e-06
-4.42373e-06
-4.42373e-06
-4.42373e-06
-4.42374e-06
-4.42374e-06
-4.42374e-06
-4.42374e-06
-4.42375e-06
-4.42375e-06
-4.42376e-06
-4.42376e-06
-4.42376e-06
-4.42377e-06
-4.42378e-06
-4.42378e-06
-4.42379e-06
-4.42379e-06
-4.4238e-06
-4.42381e-06
-4.42382e-06
-4.42383e-06
-4.42384e-06
-4.42385e-06
-4.42386e-06
-4.42387e-06
-4.42388e-06
-4.4239e-06
-4.42391e-06
-4.42393e-06
-4.42395e-06
-4.42397e-06
-4.42399e-06
-4.42401e-06
-4.42403e-06
-4.42406e-06
-4.42409e-06
-4.42412e-06
-4.42415e-06
-4.42418e-06
-4.42422e-06
-4.42426e-06
-4.4243e-06
-4.42434e-06
-4.42439e-06
-4.42444e-06
-4.4245e-06
-4.42456e-06
-4.42462e-06
-4.42469e-06
-4.42476e-06
-4.42484e-06
-4.42492e-06
-4.42501e-06
-4.4251e-06
-4.42521e-06
-4.42532e-06
-4.42543e-06
-4.42556e-06
-4.42569e-06
-4.42583e-06
-4.42599e-06
-4.42615e-06
-4.42632e-06
-4.42651e-06
-4.42671e-06
-4.42692e-06
-4.42715e-06
-4.42739e-06
-4.42764e-06
-4.42792e-06
-4.42821e-06
-4.42852e-06
-4.42885e-06
-4.4292e-06
-4.42958e-06
-4.42998e-06
-4.43041e-06
-4.43086e-06
-4.43134e-06
-4.43185e-06
-4.4324e-06
-4.43297e-06
-4.43359e-06
-4.43424e-06
-4.43493e-06
-4.43566e-06
-4.43644e-06
-4.43726e-06
-4.43813e-06
-4.43905e-06
-4.44003e-06
-4.44107e-06
-4.44216e-06
-4.44332e-06
-4.44455e-06
-4.44585e-06
-4.44722e-06
-4.44866e-06
-4.45019e-06
-4.4518e-06
-4.45351e-06
-4.4553e-06
-4.45719e-06
-4.45919e-06
-4.4613e-06
-4.46351e-06
-4.46585e-06
-4.4683e-06
-4.47089e-06
-4.47361e-06
-4.47647e-06
-4.47948e-06
-4.48264e-06
-4.48596e-06
-4.48945e-06
-4.49311e-06
-4.49695e-06
-4.50098e-06
-4.50521e-06
-4.50964e-06
-4.51428e-06
-4.51915e-06
-4.52425e-06
-4.52958e-06
-4.53516e-06
-4.541e-06
-4.54711e-06
-4.55349e-06
-4.56016e-06
-4.56713e-06
-4.57441e-06
-4.58201e-06
-4.58994e-06
-4.59821e-06
-4.60684e-06
-4.61583e-06
-4.62521e-06
-4.63497e-06
-4.64515e-06
-4.65574e-06
-4.66676e-06
-4.67822e-06
-4.69015e-06
-4.70255e-06
-4.71544e-06
-4.72883e-06
-4.74274e-06
-4.75718e-06
-4.77217e-06
-4.78773e-06
-4.80387e-06
-4.8206e-06
-4.83795e-06
-4.85592e-06
-4.87455e-06
-4.89384e-06
-4.91381e-06
-4.93448e-06
-4.95587e-06
-4.97799e-06
-5.00087e-06
-5.02452e-06
-5.04896e-06
-5.07422e-06
-5.1003e-06
-5.12722e-06
-5.15502e-06
-5.1837e-06
-5.2133e-06
-5.24381e-06
-5.27528e-06
-5.30771e-06
-5.34113e-06
-5.37556e-06
-5.41102e-06
-5.44753e-06
-5.48511e-06
-5.52379e-06
-5.56358e-06
-5.6045e-06
-5.64659e-06
-5.68985e-06
-5.73431e-06
-5.78e-06
-5.82694e-06
-5.87514e-06
-5.92463e-06
-5.97544e-06
-6.02758e-06
-6.08109e-06
-6.13598e-06
-6.19227e-06
-6.24999e-06
-6.30917e-06
-6.36983e-06
-6.43199e-06
-6.49568e-06
-6.56091e-06
-6.62773e-06
-6.69615e-06
-6.76619e-06
-6.83788e-06
-6.91126e-06
-6.98634e-06
-7.06316e-06
-7.14173e-06
-7.22209e-06
-7.30426e-06
-7.38828e-06
-7.47417e-06
-7.56196e-06
-7.65168e-06
-7.74337e-06
-7.83704e-06
-7.93275e-06
-8.03051e-06
-8.13036e-06
-8.23234e-06
-8.33648e-06
-8.44282e-06
-8.55139e-06
-8.66224e-06
-8.77539e-06
-8.8909e-06
-9.00881e-06
-9.12915e-06
-9.25198e-06
-9.37733e-06
-9.50527e-06
-9.63583e-06
-9.76905e-06
-9.90501e-06
-1.00437e-05
-1.01853e-05
-1.03297e-05
-1.0477e-05
-1.06273e-05
-1.07806e-05
-1.0937e-05
-1.10965e-05
-1.12593e-05
-1.14245e-05
-1.15935e-05
-1.1767e-05
-1.19447e-05
-1.21262e-05
-1.23115e-05
-1.25005e-05
-1.26935e-05
-1.28904e-05
-1.30913e-05
-1.32965e-05
-1.35059e-05
-1.37196e-05
-1.39378e-05
-1.41604e-05
-1.43876e-05
-1.46192e-05
-1.48554e-05
-1.5096e-05
-1.5341e-05
-1.55902e-05
-1.58435e-05
-1.61004e-05
-1.63606e-05
-1.66237e-05
-1.6889e-05
-1.71556e-05
-1.74225e-05
-1.76884e-05
-1.79518e-05
-1.82106e-05
-1.84625e-05
-1.87046e-05
-1.89335e-05
-1.91448e-05
-1.93336e-05
-1.9494e-05
-1.9619e-05
-1.97008e-05
)
;

boundaryField
{
    fixedWall
    {
        type            calculated;
        value           uniform 0;
    }
    outlet
    {
        type            calculated;
        value           uniform -1.97303e-05;
    }
    defaultFaces
    {
        type            empty;
    }
}


// ************************************************************************* //
