/*--------------------------------*- C++ -*----------------------------------*\
| =========                 |                                                 |
| \\      /  F ield         | OpenFOAM: The Open Source CFD Toolbox           |
|  \\    /   O peration     | Version:  2406                                  |
|   \\  /    A nd           | Website:  www.openfoam.com                      |
|    \\/     M anipulation  |                                                 |
\*---------------------------------------------------------------------------*/
FoamFile
{
    version     2.0;
    format      ascii;
    arch        "LSB;label=32;scalar=64";
    class       volScalarField;
    location    "12.7";
    object      T;
}
// * * * * * * * * * * * * * * * * * * * * * * * * * * * * * * * * * * * * * //

dimensions      [0 0 0 1 0 0 0];

internalField   nonuniform List<scalar> 
1000
(
304.361
325.474
345.16
363.63
381.045
397.532
413.196
428.12
442.376
456.022
469.111
481.685
493.785
505.442
516.687
527.546
538.043
548.199
558.032
567.56
576.799
585.763
594.464
602.915
611.127
619.111
626.874
634.427
641.777
648.932
655.899
662.684
669.295
675.736
682.013
688.132
694.098
699.915
705.587
711.119
716.515
721.779
726.914
731.923
736.811
741.581
746.235
750.776
755.207
759.532
763.752
767.87
771.889
775.811
779.638
783.373
787.017
790.573
794.043
797.428
800.731
803.954
807.098
810.165
813.156
816.074
818.921
821.696
824.403
827.043
829.616
832.126
834.572
836.957
839.281
841.547
843.754
845.906
848.002
850.044
852.033
853.971
855.858
857.696
859.486
861.228
862.925
864.576
866.183
867.746
869.268
870.749
872.189
873.59
874.952
876.277
877.565
878.817
880.034
881.217
882.367
883.484
884.569
885.623
886.647
887.641
888.606
889.543
890.453
891.335
892.192
893.023
893.829
894.611
895.369
896.104
896.817
897.508
898.178
898.826
899.455
900.064
900.654
901.225
901.778
902.313
902.831
903.333
903.818
904.287
904.741
905.18
905.605
906.015
906.412
906.795
907.166
907.524
907.869
908.203
908.525
908.837
909.137
909.427
909.707
909.976
910.237
910.488
910.73
910.963
911.188
911.404
911.613
911.814
912.008
912.194
912.374
912.547
912.713
912.873
913.027
913.175
913.318
913.454
913.586
913.712
913.834
913.951
914.063
914.17
914.274
914.373
914.468
914.56
914.647
914.731
914.812
914.889
914.963
915.034
915.102
915.167
915.23
915.289
915.347
915.402
915.454
915.504
915.552
915.598
915.642
915.684
915.724
915.762
915.799
915.834
915.867
915.899
915.929
915.958
915.986
916.012
916.038
916.062
916.084
916.106
916.127
916.147
916.165
916.183
916.2
916.217
916.232
916.246
916.26
916.274
916.286
916.298
916.309
916.32
916.33
916.34
916.349
916.358
916.366
916.373
916.381
916.388
916.394
916.4
916.406
916.412
916.417
916.422
916.427
916.431
916.435
916.439
916.443
916.446
916.45
916.453
916.455
916.458
916.461
916.463
916.465
916.467
916.469
916.471
916.473
916.474
916.476
916.477
916.479
916.48
916.481
916.482
916.483
916.484
916.485
916.485
916.486
916.487
916.487
916.488
916.488
916.489
916.489
916.49
916.49
916.491
916.491
916.491
916.491
916.492
916.492
916.492
916.492
916.492
916.493
916.493
916.493
916.493
916.493
916.493
916.493
916.493
916.493
916.493
916.494
916.494
916.494
916.494
916.494
916.494
916.494
916.494
916.494
916.494
916.494
916.494
916.494
916.494
916.494
916.495
916.495
916.495
916.495
916.495
916.495
916.495
916.495
916.495
916.495
916.495
916.495
916.496
916.496
916.496
916.496
916.496
916.496
916.496
916.496
916.497
916.497
916.497
916.497
916.497
916.497
916.497
916.498
916.498
916.498
916.498
916.498
916.498
916.499
916.499
916.499
916.499
916.499
916.5
916.5
916.5
916.5
916.5
916.5
916.501
916.501
916.501
916.501
916.501
916.502
916.502
916.502
916.502
916.502
916.503
916.503
916.503
916.503
916.503
916.504
916.504
916.504
916.504
916.504
916.504
916.505
916.505
916.505
916.505
916.505
916.506
916.506
916.506
916.506
916.506
916.506
916.507
916.507
916.507
916.507
916.507
916.507
916.508
916.508
916.508
916.508
916.508
916.508
916.508
916.509
916.509
916.509
916.509
916.509
916.509
916.509
916.509
916.51
916.51
916.51
916.51
916.51
916.51
916.51
916.51
916.51
916.511
916.511
916.511
916.511
916.511
916.511
916.511
916.511
916.511
916.511
916.512
916.512
916.512
916.512
916.512
916.512
916.512
916.512
916.512
916.512
916.512
916.512
916.512
916.513
916.513
916.513
916.513
916.513
916.513
916.513
916.513
916.513
916.513
916.513
916.513
916.513
916.513
916.513
916.513
916.513
916.513
916.514
916.514
916.514
916.514
916.514
916.514
916.514
916.514
916.514
916.514
916.514
916.514
916.514
916.514
916.514
916.514
916.514
916.514
916.514
916.514
916.514
916.514
916.514
916.514
916.514
916.514
916.515
916.515
916.515
916.515
916.515
916.515
916.515
916.515
916.515
916.515
916.515
916.515
916.515
916.515
916.515
916.515
916.515
916.515
916.515
916.515
916.515
916.515
916.515
916.515
916.515
916.515
916.515
916.515
916.515
916.515
916.515
916.515
916.515
916.515
916.515
916.515
916.515
916.515
916.515
916.515
916.516
916.516
916.516
916.516
916.516
916.516
916.516
916.516
916.516
916.516
916.516
916.516
916.516
916.516
916.516
916.516
916.516
916.516
916.516
916.516
916.516
916.516
916.516
916.516
916.516
916.516
916.516
916.516
916.516
916.516
916.516
916.516
916.516
916.516
916.516
916.516
916.516
916.516
916.516
916.517
916.517
916.517
916.517
916.517
916.517
916.517
916.517
916.517
916.517
916.517
916.517
916.517
916.517
916.517
916.517
916.517
916.517
916.517
916.517
916.517
916.517
916.517
916.517
916.517
916.517
916.517
916.517
916.517
916.517
916.517
916.517
916.517
916.518
916.518
916.518
916.518
916.518
916.518
916.518
916.518
916.518
916.518
916.518
916.518
916.518
916.518
916.518
916.518
916.518
916.518
916.518
916.518
916.518
916.518
916.518
916.518
916.518
916.518
916.518
916.518
916.518
916.518
916.518
916.518
916.518
916.518
916.518
916.518
916.518
916.518
916.518
916.518
916.518
916.518
916.518
916.518
916.518
916.518
916.518
916.518
916.518
916.518
916.518
916.518
916.518
916.518
916.518
916.518
916.518
916.518
916.518
916.518
916.518
916.518
916.518
916.518
916.518
916.518
916.518
916.518
916.518
916.518
916.518
916.518
916.518
916.518
916.518
916.518
916.518
916.518
916.518
916.518
916.518
916.518
916.518
916.518
916.518
916.518
916.518
916.518
916.518
916.518
916.518
916.518
916.518
916.518
916.518
916.518
916.518
916.518
916.518
916.518
916.518
916.518
916.518
916.519
916.519
916.519
916.519
916.519
916.519
916.519
916.519
916.519
916.519
916.519
916.519
916.519
916.519
916.519
916.519
916.519
916.519
916.519
916.519
916.519
916.519
916.519
916.519
916.519
916.519
916.519
916.519
916.519
916.519
916.519
916.519
916.519
916.519
916.519
916.519
916.519
916.519
916.519
916.519
916.519
916.519
916.519
916.519
916.519
916.518
916.518
916.518
916.518
916.518
916.518
916.517
916.517
916.517
916.517
916.516
916.516
916.516
916.515
916.515
916.514
916.514
916.513
916.513
916.512
916.512
916.511
916.51
916.509
916.508
916.508
916.507
916.505
916.504
916.503
916.502
916.5
916.499
916.497
916.495
916.493
916.491
916.489
916.487
916.484
916.481
916.479
916.475
916.472
916.469
916.465
916.461
916.456
916.452
916.447
916.441
916.436
916.43
916.423
916.416
916.409
916.401
916.393
916.384
916.374
916.364
916.353
916.342
916.33
916.317
916.303
916.288
916.272
916.256
916.238
916.219
916.199
916.178
916.156
916.132
916.106
916.08
916.051
916.021
915.989
915.955
915.92
915.882
915.842
915.799
915.755
915.707
915.657
915.605
915.549
915.49
915.428
915.363
915.294
915.222
915.145
915.065
914.98
914.891
914.798
914.699
914.596
914.487
914.373
914.253
914.127
913.995
913.856
913.711
913.559
913.4
913.233
913.058
912.875
912.684
912.484
912.275
912.057
911.829
911.59
911.342
911.082
910.812
910.529
910.235
909.929
909.609
909.277
908.931
908.57
908.196
907.806
907.401
906.981
906.544
906.09
905.619
905.13
904.623
904.097
903.551
902.986
902.401
901.794
901.167
900.517
899.844
899.148
898.429
897.685
896.916
896.122
895.301
894.454
893.579
892.676
891.744
890.783
889.792
888.769
887.716
886.63
885.511
884.358
883.171
881.949
880.691
879.396
878.063
876.691
875.281
873.83
872.338
870.804
869.227
867.606
865.939
864.227
862.468
860.661
858.804
856.897
854.938
852.926
850.86
848.738
846.559
844.322
842.025
839.667
837.245
834.759
832.206
829.585
826.894
824.13
821.293
818.379
815.387
812.313
809.157
805.915
802.584
799.162
795.646
792.033
788.32
784.504
780.581
776.547
772.4
768.134
763.747
759.234
754.59
749.811
744.893
739.83
734.618
729.251
723.724
718.03
712.175
706.188
699.964
693.548
686.935
680.117
673.088
665.84
658.366
650.66
642.713
634.519
626.071
617.361
608.382
599.129
589.595
579.773
569.66
559.251
548.543
537.534
526.223
514.612
502.702
490.499
478.011
465.247
452.221
438.95
425.454
411.758
397.892
383.889
369.79
355.642
341.495
327.411
313.458
299.71
)
;

boundaryField
{
    fixedWall
    {
        type            fixedValue;
        value           uniform 293;
    }
    outlet
    {
        type            inletOutlet;
        inletValue      uniform 293;
        value           uniform 293;
    }
    defaultFaces
    {
        type            empty;
    }
}


// ************************************************************************* //
