/*--------------------------------*- C++ -*----------------------------------*\
| =========                 |                                                 |
| \\      /  F ield         | OpenFOAM: The Open Source CFD Toolbox           |
|  \\    /   O peration     | Version:  2406                                  |
|   \\  /    A nd           | Website:  www.openfoam.com                      |
|    \\/     M anipulation  |                                                 |
\*---------------------------------------------------------------------------*/
FoamFile
{
    version     2.0;
    format      ascii;
    arch        "LSB;label=32;scalar=64";
    class       volScalarField;
    location    "13.2";
    object      O2;
}
// * * * * * * * * * * * * * * * * * * * * * * * * * * * * * * * * * * * * * //

dimensions      [0 0 0 0 0 0 0];

internalField   nonuniform List<scalar> 
1000
(
1.03211e-06
1.03066e-06
1.02799e-06
1.02428e-06
1.01968e-06
1.0143e-06
1.00821e-06
1.00151e-06
9.94246e-07
9.8648e-07
9.7826e-07
9.69626e-07
9.60616e-07
9.51264e-07
9.416e-07
9.31652e-07
9.21446e-07
9.11004e-07
9.00348e-07
8.89499e-07
8.78475e-07
8.67295e-07
8.55974e-07
8.44528e-07
8.32973e-07
8.21322e-07
8.09589e-07
7.97788e-07
7.8593e-07
7.74027e-07
7.62092e-07
7.50136e-07
7.38169e-07
7.26202e-07
7.14245e-07
7.02309e-07
6.90403e-07
6.78537e-07
6.6672e-07
6.54961e-07
6.43269e-07
6.31652e-07
6.2012e-07
6.08678e-07
5.97337e-07
5.86102e-07
5.74981e-07
5.63981e-07
5.53108e-07
5.42369e-07
5.31769e-07
5.21314e-07
5.11008e-07
5.00858e-07
4.90866e-07
4.81037e-07
4.71375e-07
4.61883e-07
4.52563e-07
4.43419e-07
4.34453e-07
4.25666e-07
4.1706e-07
4.08636e-07
4.00395e-07
3.92337e-07
3.84463e-07
3.76773e-07
3.69266e-07
3.61941e-07
3.54798e-07
3.47836e-07
3.41052e-07
3.34447e-07
3.28018e-07
3.21763e-07
3.1568e-07
3.09766e-07
3.04021e-07
2.9844e-07
2.93021e-07
2.87763e-07
2.82661e-07
2.77714e-07
2.72917e-07
2.68269e-07
2.63766e-07
2.59405e-07
2.55183e-07
2.51097e-07
2.47144e-07
2.43321e-07
2.39624e-07
2.36051e-07
2.32598e-07
2.29262e-07
2.26041e-07
2.2293e-07
2.19928e-07
2.17031e-07
2.14236e-07
2.11541e-07
2.08942e-07
2.06437e-07
2.04024e-07
2.01698e-07
1.99458e-07
1.97301e-07
1.95224e-07
1.93226e-07
1.91303e-07
1.89453e-07
1.87674e-07
1.85963e-07
1.84319e-07
1.82739e-07
1.81221e-07
1.79763e-07
1.78364e-07
1.7702e-07
1.7573e-07
1.74492e-07
1.73305e-07
1.72167e-07
1.71076e-07
1.7003e-07
1.69028e-07
1.68068e-07
1.67149e-07
1.66269e-07
1.65427e-07
1.64622e-07
1.63852e-07
1.63115e-07
1.62412e-07
1.6174e-07
1.61098e-07
1.60485e-07
1.59901e-07
1.59343e-07
1.58812e-07
1.58305e-07
1.57823e-07
1.57364e-07
1.56927e-07
1.56511e-07
1.56117e-07
1.55741e-07
1.55385e-07
1.55048e-07
1.54728e-07
1.54424e-07
1.54137e-07
1.53866e-07
1.5361e-07
1.53367e-07
1.53139e-07
1.52924e-07
1.52722e-07
1.52532e-07
1.52354e-07
1.52186e-07
1.5203e-07
1.51884e-07
1.51748e-07
1.51622e-07
1.51504e-07
1.51396e-07
1.51296e-07
1.51203e-07
1.51119e-07
1.51042e-07
1.50972e-07
1.50908e-07
1.50852e-07
1.50801e-07
1.50757e-07
1.50718e-07
1.50684e-07
1.50656e-07
1.50633e-07
1.50615e-07
1.50601e-07
1.50592e-07
1.50587e-07
1.50585e-07
1.50588e-07
1.50594e-07
1.50604e-07
1.50617e-07
1.50634e-07
1.50653e-07
1.50676e-07
1.50701e-07
1.50729e-07
1.50759e-07
1.50792e-07
1.50828e-07
1.50865e-07
1.50905e-07
1.50947e-07
1.50991e-07
1.51036e-07
1.51084e-07
1.51133e-07
1.51183e-07
1.51236e-07
1.51289e-07
1.51345e-07
1.51401e-07
1.51459e-07
1.51518e-07
1.51578e-07
1.5164e-07
1.51702e-07
1.51766e-07
1.5183e-07
1.51895e-07
1.51962e-07
1.52029e-07
1.52097e-07
1.52165e-07
1.52235e-07
1.52305e-07
1.52376e-07
1.52447e-07
1.52519e-07
1.52592e-07
1.52665e-07
1.52739e-07
1.52813e-07
1.52888e-07
1.52963e-07
1.53039e-07
1.53115e-07
1.53192e-07
1.53269e-07
1.53346e-07
1.53423e-07
1.53501e-07
1.5358e-07
1.53658e-07
1.53737e-07
1.53816e-07
1.53896e-07
1.53975e-07
1.54055e-07
1.54136e-07
1.54216e-07
1.54297e-07
1.54378e-07
1.54459e-07
1.5454e-07
1.54621e-07
1.54703e-07
1.54785e-07
1.54867e-07
1.54949e-07
1.55031e-07
1.55114e-07
1.55197e-07
1.55279e-07
1.55362e-07
1.55445e-07
1.55528e-07
1.55612e-07
1.55695e-07
1.55779e-07
1.55862e-07
1.55946e-07
1.5603e-07
1.56114e-07
1.56198e-07
1.56282e-07
1.56366e-07
1.56451e-07
1.56535e-07
1.5662e-07
1.56705e-07
1.56789e-07
1.56874e-07
1.56959e-07
1.57044e-07
1.57129e-07
1.57214e-07
1.57299e-07
1.57385e-07
1.5747e-07
1.57556e-07
1.57641e-07
1.57727e-07
1.57813e-07
1.57898e-07
1.57984e-07
1.5807e-07
1.58156e-07
1.58243e-07
1.58329e-07
1.58415e-07
1.58502e-07
1.58588e-07
1.58675e-07
1.58761e-07
1.58848e-07
1.58935e-07
1.59021e-07
1.59108e-07
1.59195e-07
1.59282e-07
1.5937e-07
1.59457e-07
1.59544e-07
1.59632e-07
1.59719e-07
1.59807e-07
1.59894e-07
1.59982e-07
1.6007e-07
1.60158e-07
1.60246e-07
1.60334e-07
1.60422e-07
1.6051e-07
1.60599e-07
1.60687e-07
1.60775e-07
1.60864e-07
1.60952e-07
1.61041e-07
1.6113e-07
1.61219e-07
1.61308e-07
1.61397e-07
1.61486e-07
1.61576e-07
1.61665e-07
1.61754e-07
1.61844e-07
1.61934e-07
1.62023e-07
1.62113e-07
1.62203e-07
1.62293e-07
1.62383e-07
1.62473e-07
1.62564e-07
1.62654e-07
1.62744e-07
1.62835e-07
1.62926e-07
1.63016e-07
1.63107e-07
1.63198e-07
1.63289e-07
1.63381e-07
1.63472e-07
1.63563e-07
1.63655e-07
1.63746e-07
1.63838e-07
1.6393e-07
1.64022e-07
1.64114e-07
1.64206e-07
1.64298e-07
1.6439e-07
1.64483e-07
1.64575e-07
1.64668e-07
1.6476e-07
1.64853e-07
1.64946e-07
1.65039e-07
1.65132e-07
1.65226e-07
1.65319e-07
1.65412e-07
1.65506e-07
1.656e-07
1.65694e-07
1.65787e-07
1.65881e-07
1.65976e-07
1.6607e-07
1.66164e-07
1.66259e-07
1.66353e-07
1.66448e-07
1.66543e-07
1.66638e-07
1.66733e-07
1.66828e-07
1.66923e-07
1.67019e-07
1.67114e-07
1.6721e-07
1.67305e-07
1.67401e-07
1.67497e-07
1.67593e-07
1.67689e-07
1.67785e-07
1.67882e-07
1.67978e-07
1.68075e-07
1.68172e-07
1.68269e-07
1.68366e-07
1.68463e-07
1.6856e-07
1.68657e-07
1.68755e-07
1.68852e-07
1.6895e-07
1.69048e-07
1.69146e-07
1.69244e-07
1.69342e-07
1.6944e-07
1.69538e-07
1.69637e-07
1.69735e-07
1.69834e-07
1.69933e-07
1.70032e-07
1.70131e-07
1.7023e-07
1.70329e-07
1.70429e-07
1.70528e-07
1.70628e-07
1.70727e-07
1.70827e-07
1.70927e-07
1.71027e-07
1.71128e-07
1.71228e-07
1.71329e-07
1.71429e-07
1.7153e-07
1.71631e-07
1.71732e-07
1.71833e-07
1.71934e-07
1.72035e-07
1.72137e-07
1.72238e-07
1.7234e-07
1.72442e-07
1.72543e-07
1.72646e-07
1.72748e-07
1.7285e-07
1.72952e-07
1.73055e-07
1.73158e-07
1.7326e-07
1.73363e-07
1.73466e-07
1.73569e-07
1.73673e-07
1.73776e-07
1.73879e-07
1.73983e-07
1.74087e-07
1.7419e-07
1.74294e-07
1.74399e-07
1.74503e-07
1.74607e-07
1.74712e-07
1.74816e-07
1.74921e-07
1.75026e-07
1.75131e-07
1.75236e-07
1.75341e-07
1.75447e-07
1.75552e-07
1.75658e-07
1.75764e-07
1.75869e-07
1.75975e-07
1.76082e-07
1.76188e-07
1.76294e-07
1.76401e-07
1.76508e-07
1.76614e-07
1.76721e-07
1.76828e-07
1.76936e-07
1.77043e-07
1.7715e-07
1.77258e-07
1.77366e-07
1.77473e-07
1.77581e-07
1.77689e-07
1.77798e-07
1.77906e-07
1.78015e-07
1.78123e-07
1.78232e-07
1.78341e-07
1.7845e-07
1.78559e-07
1.78668e-07
1.78778e-07
1.78887e-07
1.78997e-07
1.79107e-07
1.79217e-07
1.79327e-07
1.79437e-07
1.79548e-07
1.79658e-07
1.79769e-07
1.7988e-07
1.7999e-07
1.80102e-07
1.80213e-07
1.80324e-07
1.80436e-07
1.80547e-07
1.80659e-07
1.80771e-07
1.80883e-07
1.80995e-07
1.81107e-07
1.8122e-07
1.81332e-07
1.81445e-07
1.81558e-07
1.81671e-07
1.81784e-07
1.81897e-07
1.82011e-07
1.82124e-07
1.82238e-07
1.82352e-07
1.82466e-07
1.8258e-07
1.82694e-07
1.82808e-07
1.82923e-07
1.83038e-07
1.83152e-07
1.83267e-07
1.83383e-07
1.83498e-07
1.83613e-07
1.83729e-07
1.83844e-07
1.8396e-07
1.84076e-07
1.84192e-07
1.84309e-07
1.84425e-07
1.84541e-07
1.84658e-07
1.84775e-07
1.84892e-07
1.85009e-07
1.85127e-07
1.85244e-07
1.85362e-07
1.85479e-07
1.85597e-07
1.85715e-07
1.85833e-07
1.85952e-07
1.8607e-07
1.86189e-07
1.86308e-07
1.86426e-07
1.86546e-07
1.86665e-07
1.86784e-07
1.86904e-07
1.87023e-07
1.87143e-07
1.87263e-07
1.87383e-07
1.87504e-07
1.87624e-07
1.87745e-07
1.87866e-07
1.87986e-07
1.88108e-07
1.88229e-07
1.8835e-07
1.88472e-07
1.88593e-07
1.88715e-07
1.88837e-07
1.8896e-07
1.89082e-07
1.89204e-07
1.89327e-07
1.8945e-07
1.89573e-07
1.89696e-07
1.89819e-07
1.89943e-07
1.90067e-07
1.9019e-07
1.90314e-07
1.90439e-07
1.90563e-07
1.90687e-07
1.90812e-07
1.90937e-07
1.91062e-07
1.91187e-07
1.91312e-07
1.91438e-07
1.91563e-07
1.91689e-07
1.91815e-07
1.91941e-07
1.92067e-07
1.92194e-07
1.92321e-07
1.92447e-07
1.92574e-07
1.92702e-07
1.92829e-07
1.92956e-07
1.93084e-07
1.93212e-07
1.9334e-07
1.93468e-07
1.93596e-07
1.93724e-07
1.93853e-07
1.93982e-07
1.94111e-07
1.9424e-07
1.9437e-07
1.94499e-07
1.94629e-07
1.94759e-07
1.94889e-07
1.9502e-07
1.9515e-07
1.95281e-07
1.95412e-07
1.95542e-07
1.95673e-07
1.95804e-07
1.95936e-07
1.96068e-07
1.96199e-07
1.96331e-07
1.96464e-07
1.96596e-07
1.96728e-07
1.96861e-07
1.96994e-07
1.97127e-07
1.9726e-07
1.97394e-07
1.97527e-07
1.97661e-07
1.97795e-07
1.97929e-07
1.98063e-07
1.98198e-07
1.98333e-07
1.98467e-07
1.98602e-07
1.98738e-07
1.98873e-07
1.99009e-07
1.99144e-07
1.9928e-07
1.99416e-07
1.99553e-07
1.99689e-07
1.99826e-07
1.99963e-07
2.001e-07
2.00237e-07
2.00374e-07
2.00512e-07
2.0065e-07
2.00788e-07
2.00926e-07
2.01064e-07
2.01203e-07
2.01341e-07
2.0148e-07
2.01618e-07
2.01758e-07
2.01897e-07
2.02037e-07
2.02176e-07
2.02316e-07
2.02457e-07
2.02597e-07
2.02738e-07
2.02878e-07
2.03019e-07
2.0316e-07
2.03302e-07
2.03443e-07
2.03585e-07
2.03727e-07
2.03869e-07
2.04011e-07
2.04154e-07
2.04296e-07
2.04439e-07
2.04582e-07
2.04725e-07
2.04869e-07
2.05013e-07
2.05156e-07
2.05301e-07
2.05445e-07
2.05589e-07
2.05734e-07
2.05879e-07
2.06024e-07
2.0617e-07
2.06315e-07
2.06461e-07
2.06607e-07
2.06754e-07
2.069e-07
2.07047e-07
2.07194e-07
2.07341e-07
2.07488e-07
2.07636e-07
2.07784e-07
2.07932e-07
2.0808e-07
2.08229e-07
2.08378e-07
2.08527e-07
2.08676e-07
2.08826e-07
2.08976e-07
2.09126e-07
2.09276e-07
2.09427e-07
2.09578e-07
2.09729e-07
2.0988e-07
2.10032e-07
2.10184e-07
2.10336e-07
2.10489e-07
2.10642e-07
2.10795e-07
2.10949e-07
2.11103e-07
2.11257e-07
2.11412e-07
2.11566e-07
2.11722e-07
2.11877e-07
2.12034e-07
2.1219e-07
2.12347e-07
2.12504e-07
2.12662e-07
2.1282e-07
2.12979e-07
2.13138e-07
2.13298e-07
2.13458e-07
2.13619e-07
2.1378e-07
2.13942e-07
2.14105e-07
2.14268e-07
2.14432e-07
2.14597e-07
2.14763e-07
2.14929e-07
2.15096e-07
2.15265e-07
2.15434e-07
2.15604e-07
2.15775e-07
2.15947e-07
2.16121e-07
2.16295e-07
2.16471e-07
2.16649e-07
2.16827e-07
2.17008e-07
2.1719e-07
2.17374e-07
2.17559e-07
2.17747e-07
2.17937e-07
2.18128e-07
2.18323e-07
2.18519e-07
2.18718e-07
2.1892e-07
2.19125e-07
2.19333e-07
2.19545e-07
2.19759e-07
2.19978e-07
2.202e-07
2.20427e-07
2.20658e-07
2.20893e-07
2.21134e-07
2.2138e-07
2.21631e-07
2.21888e-07
2.22151e-07
2.22421e-07
2.22698e-07
2.22982e-07
2.23274e-07
2.23575e-07
2.23883e-07
2.24202e-07
2.24529e-07
2.24868e-07
2.25217e-07
2.25577e-07
2.2595e-07
2.26335e-07
2.26734e-07
2.27148e-07
2.27576e-07
2.2802e-07
2.28481e-07
2.2896e-07
2.29458e-07
2.29975e-07
2.30512e-07
2.31072e-07
2.31654e-07
2.32261e-07
2.32893e-07
2.33552e-07
2.34239e-07
2.34956e-07
2.35704e-07
2.36484e-07
2.37299e-07
2.3815e-07
2.39039e-07
2.39968e-07
2.40938e-07
2.41952e-07
2.43013e-07
2.44121e-07
2.4528e-07
2.46492e-07
2.47759e-07
2.49084e-07
2.50469e-07
2.51919e-07
2.53434e-07
2.55019e-07
2.56677e-07
2.5841e-07
2.60223e-07
2.62118e-07
2.641e-07
2.66171e-07
2.68336e-07
2.70599e-07
2.72964e-07
2.75435e-07
2.78017e-07
2.80713e-07
2.83529e-07
2.86469e-07
2.89538e-07
2.92742e-07
2.96084e-07
2.99572e-07
3.03208e-07
3.07001e-07
3.10954e-07
3.15073e-07
3.19365e-07
3.23835e-07
3.2849e-07
3.33334e-07
3.38375e-07
3.43618e-07
3.49069e-07
3.54736e-07
3.60623e-07
3.66738e-07
3.73086e-07
3.79674e-07
3.86507e-07
3.93592e-07
4.00934e-07
4.08539e-07
4.16413e-07
4.2456e-07
4.32986e-07
4.41696e-07
4.50693e-07
4.59981e-07
4.69564e-07
4.79445e-07
4.89626e-07
5.00108e-07
5.10893e-07
5.21981e-07
5.33371e-07
5.45061e-07
5.57049e-07
5.69331e-07
5.81902e-07
5.94756e-07
6.07886e-07
6.21281e-07
6.34933e-07
6.48828e-07
6.62953e-07
6.77293e-07
6.91829e-07
7.06542e-07
7.21411e-07
7.36412e-07
7.5152e-07
7.66705e-07
7.81939e-07
7.97189e-07
8.1242e-07
8.27595e-07
8.42674e-07
8.57617e-07
8.7238e-07
8.86917e-07
9.01181e-07
9.15122e-07
9.28689e-07
9.4183e-07
9.5449e-07
9.66615e-07
9.78147e-07
9.89031e-07
9.99208e-07
1.00862e-06
1.01722e-06
1.02493e-06
1.03171e-06
1.0375e-06
1.04224e-06
1.04588e-06
1.04838e-06
1.04966e-06
1.0497e-06
1.04846e-06
1.04587e-06
1.04192e-06
1.03655e-06
1.02973e-06
1.02144e-06
1.01164e-06
1.00032e-06
9.87442e-07
9.73004e-07
9.5699e-07
9.39391e-07
9.20204e-07
8.9943e-07
8.77074e-07
8.53149e-07
8.2767e-07
8.00659e-07
7.72145e-07
7.42163e-07
7.10756e-07
6.77974e-07
6.43875e-07
6.08528e-07
5.72012e-07
5.34415e-07
4.95839e-07
4.56401e-07
4.16231e-07
3.75474e-07
3.34298e-07
2.92887e-07
2.51447e-07
2.10209e-07
1.69428e-07
1.29384e-07
9.03861e-08
5.27667e-08
1.68834e-08
)
;

boundaryField
{
    fixedWall
    {
        type            zeroGradient;
    }
    outlet
    {
        type            inletOutlet;
        inletValue      uniform 0;
        value           uniform 0;
    }
    defaultFaces
    {
        type            empty;
    }
}


// ************************************************************************* //
