/*--------------------------------*- C++ -*----------------------------------*\
| =========                 |                                                 |
| \\      /  F ield         | OpenFOAM: The Open Source CFD Toolbox           |
|  \\    /   O peration     | Version:  2406                                  |
|   \\  /    A nd           | Website:  www.openfoam.com                      |
|    \\/     M anipulation  |                                                 |
\*---------------------------------------------------------------------------*/
FoamFile
{
    version     2.0;
    format      ascii;
    arch        "LSB;label=32;scalar=64";
    class       surfaceScalarField;
    location    "13.2";
    object      phi;
}
// * * * * * * * * * * * * * * * * * * * * * * * * * * * * * * * * * * * * * //

dimensions      [1 0 -1 0 0 0 0];

oriented        oriented;

internalField   nonuniform List<scalar> 
999
(
-1.20808e-08
-4.10234e-08
-8.10809e-08
-1.28635e-07
-1.81284e-07
-2.37411e-07
-2.95873e-07
-3.55871e-07
-4.16813e-07
-4.78271e-07
-5.39931e-07
-6.01548e-07
-6.62945e-07
-7.23985e-07
-7.84568e-07
-8.44615e-07
-9.04068e-07
-9.62883e-07
-1.02102e-06
-1.07847e-06
-1.1352e-06
-1.19121e-06
-1.24649e-06
-1.30104e-06
-1.35485e-06
-1.40793e-06
-1.46028e-06
-1.5119e-06
-1.5628e-06
-1.61299e-06
-1.66247e-06
-1.71125e-06
-1.75933e-06
-1.80673e-06
-1.85344e-06
-1.89949e-06
-1.94487e-06
-1.9896e-06
-2.03368e-06
-2.07712e-06
-2.11993e-06
-2.16211e-06
-2.20367e-06
-2.24463e-06
-2.28498e-06
-2.32473e-06
-2.3639e-06
-2.40249e-06
-2.44049e-06
-2.47793e-06
-2.51481e-06
-2.55113e-06
-2.5869e-06
-2.62212e-06
-2.65681e-06
-2.69097e-06
-2.7246e-06
-2.75771e-06
-2.79031e-06
-2.82239e-06
-2.85397e-06
-2.88506e-06
-2.91565e-06
-2.94575e-06
-2.97537e-06
-3.00452e-06
-3.03319e-06
-3.06139e-06
-3.08913e-06
-3.11641e-06
-3.14324e-06
-3.16962e-06
-3.19556e-06
-3.22106e-06
-3.24613e-06
-3.27077e-06
-3.29498e-06
-3.31878e-06
-3.34215e-06
-3.36512e-06
-3.38768e-06
-3.40984e-06
-3.43161e-06
-3.45298e-06
-3.47396e-06
-3.49456e-06
-3.51478e-06
-3.53462e-06
-3.5541e-06
-3.57321e-06
-3.59195e-06
-3.61034e-06
-3.62838e-06
-3.64606e-06
-3.6634e-06
-3.68041e-06
-3.69707e-06
-3.71341e-06
-3.72941e-06
-3.7451e-06
-3.76046e-06
-3.77551e-06
-3.79025e-06
-3.80468e-06
-3.81881e-06
-3.83264e-06
-3.84618e-06
-3.85942e-06
-3.87239e-06
-3.88507e-06
-3.89747e-06
-3.9096e-06
-3.92146e-06
-3.93306e-06
-3.94439e-06
-3.95547e-06
-3.96629e-06
-3.97686e-06
-3.98719e-06
-3.99728e-06
-4.00713e-06
-4.01674e-06
-4.02613e-06
-4.03529e-06
-4.04423e-06
-4.05295e-06
-4.06146e-06
-4.06976e-06
-4.07785e-06
-4.08574e-06
-4.09343e-06
-4.10092e-06
-4.10822e-06
-4.11533e-06
-4.12226e-06
-4.129e-06
-4.13557e-06
-4.14196e-06
-4.14818e-06
-4.15424e-06
-4.16013e-06
-4.16586e-06
-4.17143e-06
-4.17685e-06
-4.18212e-06
-4.18724e-06
-4.19222e-06
-4.19706e-06
-4.20175e-06
-4.20632e-06
-4.21075e-06
-4.21505e-06
-4.21922e-06
-4.22327e-06
-4.2272e-06
-4.23102e-06
-4.23472e-06
-4.2383e-06
-4.24178e-06
-4.24515e-06
-4.24842e-06
-4.25158e-06
-4.25465e-06
-4.25761e-06
-4.26049e-06
-4.26327e-06
-4.26595e-06
-4.26855e-06
-4.27107e-06
-4.27351e-06
-4.27586e-06
-4.27816e-06
-4.28037e-06
-4.2825e-06
-4.28455e-06
-4.28653e-06
-4.28846e-06
-4.29033e-06
-4.29212e-06
-4.29385e-06
-4.29554e-06
-4.29716e-06
-4.29873e-06
-4.30023e-06
-4.30168e-06
-4.30308e-06
-4.30442e-06
-4.30572e-06
-4.30698e-06
-4.30819e-06
-4.30936e-06
-4.31049e-06
-4.31157e-06
-4.31261e-06
-4.31361e-06
-4.31456e-06
-4.31549e-06
-4.31637e-06
-4.31722e-06
-4.31803e-06
-4.31882e-06
-4.31958e-06
-4.32031e-06
-4.32101e-06
-4.32168e-06
-4.32233e-06
-4.32296e-06
-4.32355e-06
-4.32413e-06
-4.32468e-06
-4.3252e-06
-4.32571e-06
-4.32619e-06
-4.32665e-06
-4.32709e-06
-4.32752e-06
-4.32793e-06
-4.32832e-06
-4.3287e-06
-4.32906e-06
-4.3294e-06
-4.32973e-06
-4.33004e-06
-4.33034e-06
-4.33063e-06
-4.3309e-06
-4.33117e-06
-4.33142e-06
-4.33166e-06
-4.33188e-06
-4.3321e-06
-4.33231e-06
-4.33251e-06
-4.3327e-06
-4.33288e-06
-4.33305e-06
-4.33322e-06
-4.33337e-06
-4.33352e-06
-4.33366e-06
-4.3338e-06
-4.33393e-06
-4.33405e-06
-4.33416e-06
-4.33427e-06
-4.33438e-06
-4.33448e-06
-4.33457e-06
-4.33466e-06
-4.33475e-06
-4.33483e-06
-4.33491e-06
-4.33498e-06
-4.33505e-06
-4.33511e-06
-4.33517e-06
-4.33523e-06
-4.33529e-06
-4.33534e-06
-4.33539e-06
-4.33543e-06
-4.33548e-06
-4.33552e-06
-4.33556e-06
-4.33559e-06
-4.33563e-06
-4.33566e-06
-4.33569e-06
-4.33572e-06
-4.33575e-06
-4.33577e-06
-4.3358e-06
-4.33582e-06
-4.33584e-06
-4.33586e-06
-4.33588e-06
-4.33589e-06
-4.33591e-06
-4.33592e-06
-4.33593e-06
-4.33595e-06
-4.33596e-06
-4.33597e-06
-4.33598e-06
-4.33599e-06
-4.336e-06
-4.336e-06
-4.33601e-06
-4.33602e-06
-4.33602e-06
-4.33603e-06
-4.33603e-06
-4.33603e-06
-4.33604e-06
-4.33604e-06
-4.33604e-06
-4.33604e-06
-4.33605e-06
-4.33605e-06
-4.33605e-06
-4.33605e-06
-4.33605e-06
-4.33605e-06
-4.33605e-06
-4.33605e-06
-4.33604e-06
-4.33604e-06
-4.33604e-06
-4.33604e-06
-4.33604e-06
-4.33604e-06
-4.33604e-06
-4.33604e-06
-4.33604e-06
-4.33603e-06
-4.33603e-06
-4.33603e-06
-4.33603e-06
-4.33602e-06
-4.33602e-06
-4.33602e-06
-4.33601e-06
-4.33601e-06
-4.33601e-06
-4.33601e-06
-4.336e-06
-4.336e-06
-4.336e-06
-4.336e-06
-4.33599e-06
-4.33599e-06
-4.33599e-06
-4.33599e-06
-4.33598e-06
-4.33598e-06
-4.33598e-06
-4.33598e-06
-4.33597e-06
-4.33597e-06
-4.33597e-06
-4.33597e-06
-4.33597e-06
-4.33597e-06
-4.33596e-06
-4.33596e-06
-4.33596e-06
-4.33596e-06
-4.33596e-06
-4.33596e-06
-4.33596e-06
-4.33596e-06
-4.33595e-06
-4.33595e-06
-4.33595e-06
-4.33595e-06
-4.33595e-06
-4.33595e-06
-4.33595e-06
-4.33595e-06
-4.33594e-06
-4.33594e-06
-4.33594e-06
-4.33594e-06
-4.33594e-06
-4.33594e-06
-4.33594e-06
-4.33594e-06
-4.33594e-06
-4.33594e-06
-4.33594e-06
-4.33594e-06
-4.33594e-06
-4.33594e-06
-4.33594e-06
-4.33594e-06
-4.33594e-06
-4.33594e-06
-4.33594e-06
-4.33594e-06
-4.33594e-06
-4.33594e-06
-4.33594e-06
-4.33594e-06
-4.33594e-06
-4.33594e-06
-4.33594e-06
-4.33594e-06
-4.33594e-06
-4.33594e-06
-4.33594e-06
-4.33594e-06
-4.33594e-06
-4.33594e-06
-4.33594e-06
-4.33594e-06
-4.33594e-06
-4.33594e-06
-4.33594e-06
-4.33594e-06
-4.33594e-06
-4.33594e-06
-4.33594e-06
-4.33594e-06
-4.33594e-06
-4.33594e-06
-4.33594e-06
-4.33595e-06
-4.33595e-06
-4.33595e-06
-4.33595e-06
-4.33595e-06
-4.33595e-06
-4.33595e-06
-4.33595e-06
-4.33595e-06
-4.33595e-06
-4.33595e-06
-4.33595e-06
-4.33595e-06
-4.33595e-06
-4.33595e-06
-4.33595e-06
-4.33595e-06
-4.33595e-06
-4.33595e-06
-4.33595e-06
-4.33595e-06
-4.33595e-06
-4.33595e-06
-4.33595e-06
-4.33595e-06
-4.33595e-06
-4.33596e-06
-4.33596e-06
-4.33596e-06
-4.33596e-06
-4.33596e-06
-4.33596e-06
-4.33596e-06
-4.33596e-06
-4.33596e-06
-4.33596e-06
-4.33596e-06
-4.33596e-06
-4.33596e-06
-4.33596e-06
-4.33596e-06
-4.33596e-06
-4.33596e-06
-4.33596e-06
-4.33596e-06
-4.33596e-06
-4.33596e-06
-4.33596e-06
-4.33596e-06
-4.33596e-06
-4.33596e-06
-4.33596e-06
-4.33596e-06
-4.33596e-06
-4.33596e-06
-4.33596e-06
-4.33596e-06
-4.33596e-06
-4.33596e-06
-4.33596e-06
-4.33596e-06
-4.33596e-06
-4.33596e-06
-4.33596e-06
-4.33596e-06
-4.33596e-06
-4.33596e-06
-4.33596e-06
-4.33596e-06
-4.33596e-06
-4.33596e-06
-4.33596e-06
-4.33596e-06
-4.33596e-06
-4.33596e-06
-4.33596e-06
-4.33596e-06
-4.33596e-06
-4.33596e-06
-4.33596e-06
-4.33596e-06
-4.33596e-06
-4.33596e-06
-4.33596e-06
-4.33596e-06
-4.33596e-06
-4.33596e-06
-4.33596e-06
-4.33596e-06
-4.33596e-06
-4.33596e-06
-4.33596e-06
-4.33596e-06
-4.33596e-06
-4.33596e-06
-4.33596e-06
-4.33596e-06
-4.33596e-06
-4.33595e-06
-4.33595e-06
-4.33595e-06
-4.33595e-06
-4.33595e-06
-4.33595e-06
-4.33595e-06
-4.33595e-06
-4.33595e-06
-4.33595e-06
-4.33595e-06
-4.33595e-06
-4.33595e-06
-4.33595e-06
-4.33595e-06
-4.33595e-06
-4.33595e-06
-4.33595e-06
-4.33595e-06
-4.33595e-06
-4.33595e-06
-4.33595e-06
-4.33595e-06
-4.33595e-06
-4.33595e-06
-4.33595e-06
-4.33594e-06
-4.33594e-06
-4.33594e-06
-4.33594e-06
-4.33594e-06
-4.33594e-06
-4.33594e-06
-4.33594e-06
-4.33594e-06
-4.33594e-06
-4.33594e-06
-4.33594e-06
-4.33594e-06
-4.33594e-06
-4.33594e-06
-4.33594e-06
-4.33594e-06
-4.33593e-06
-4.33593e-06
-4.33593e-06
-4.33593e-06
-4.33593e-06
-4.33593e-06
-4.33593e-06
-4.33593e-06
-4.33593e-06
-4.33593e-06
-4.33593e-06
-4.33593e-06
-4.33593e-06
-4.33593e-06
-4.33593e-06
-4.33593e-06
-4.33593e-06
-4.33593e-06
-4.33593e-06
-4.33593e-06
-4.33593e-06
-4.33593e-06
-4.33593e-06
-4.33592e-06
-4.33592e-06
-4.33592e-06
-4.33592e-06
-4.33592e-06
-4.33592e-06
-4.33592e-06
-4.33592e-06
-4.33592e-06
-4.33592e-06
-4.33592e-06
-4.33592e-06
-4.33592e-06
-4.33592e-06
-4.33592e-06
-4.33592e-06
-4.33592e-06
-4.33592e-06
-4.33592e-06
-4.33592e-06
-4.33592e-06
-4.33592e-06
-4.33592e-06
-4.33592e-06
-4.33592e-06
-4.33592e-06
-4.33592e-06
-4.33592e-06
-4.33592e-06
-4.33592e-06
-4.33592e-06
-4.33592e-06
-4.33592e-06
-4.33592e-06
-4.33592e-06
-4.33592e-06
-4.33592e-06
-4.33592e-06
-4.33592e-06
-4.33592e-06
-4.33592e-06
-4.33592e-06
-4.33592e-06
-4.33592e-06
-4.33592e-06
-4.33592e-06
-4.33592e-06
-4.33592e-06
-4.33592e-06
-4.33592e-06
-4.33592e-06
-4.33592e-06
-4.33592e-06
-4.33592e-06
-4.33592e-06
-4.33592e-06
-4.33592e-06
-4.33592e-06
-4.33592e-06
-4.33592e-06
-4.33592e-06
-4.33592e-06
-4.33592e-06
-4.33592e-06
-4.33592e-06
-4.33592e-06
-4.33592e-06
-4.33592e-06
-4.33592e-06
-4.33592e-06
-4.33592e-06
-4.33592e-06
-4.33592e-06
-4.33592e-06
-4.33592e-06
-4.33592e-06
-4.33592e-06
-4.33592e-06
-4.33592e-06
-4.33592e-06
-4.33592e-06
-4.33592e-06
-4.33592e-06
-4.33592e-06
-4.33592e-06
-4.33591e-06
-4.33591e-06
-4.33591e-06
-4.33591e-06
-4.33591e-06
-4.33591e-06
-4.33591e-06
-4.33591e-06
-4.33591e-06
-4.33591e-06
-4.33591e-06
-4.33591e-06
-4.33591e-06
-4.3359e-06
-4.3359e-06
-4.3359e-06
-4.3359e-06
-4.3359e-06
-4.3359e-06
-4.3359e-06
-4.3359e-06
-4.3359e-06
-4.3359e-06
-4.3359e-06
-4.33589e-06
-4.33589e-06
-4.33589e-06
-4.33589e-06
-4.33589e-06
-4.33589e-06
-4.33589e-06
-4.33589e-06
-4.33589e-06
-4.33589e-06
-4.33589e-06
-4.33588e-06
-4.33589e-06
-4.33588e-06
-4.33588e-06
-4.33588e-06
-4.33588e-06
-4.33588e-06
-4.33588e-06
-4.33588e-06
-4.33588e-06
-4.33589e-06
-4.33588e-06
-4.33589e-06
-4.33589e-06
-4.33589e-06
-4.33589e-06
-4.33589e-06
-4.33589e-06
-4.33589e-06
-4.33589e-06
-4.33589e-06
-4.33589e-06
-4.33589e-06
-4.3359e-06
-4.3359e-06
-4.3359e-06
-4.3359e-06
-4.3359e-06
-4.33591e-06
-4.33591e-06
-4.33591e-06
-4.33592e-06
-4.33592e-06
-4.33593e-06
-4.33593e-06
-4.33594e-06
-4.33595e-06
-4.33595e-06
-4.33596e-06
-4.33597e-06
-4.33598e-06
-4.33599e-06
-4.336e-06
-4.33601e-06
-4.33602e-06
-4.33603e-06
-4.33605e-06
-4.33606e-06
-4.33608e-06
-4.33609e-06
-4.33611e-06
-4.33613e-06
-4.33615e-06
-4.33617e-06
-4.3362e-06
-4.33622e-06
-4.33625e-06
-4.33628e-06
-4.33631e-06
-4.33635e-06
-4.33638e-06
-4.33642e-06
-4.33646e-06
-4.33651e-06
-4.33656e-06
-4.33661e-06
-4.33666e-06
-4.33672e-06
-4.33678e-06
-4.33685e-06
-4.33692e-06
-4.337e-06
-4.33708e-06
-4.33717e-06
-4.33726e-06
-4.33736e-06
-4.33747e-06
-4.33758e-06
-4.3377e-06
-4.33783e-06
-4.33797e-06
-4.33812e-06
-4.33827e-06
-4.33844e-06
-4.33862e-06
-4.33881e-06
-4.33901e-06
-4.33922e-06
-4.33945e-06
-4.33969e-06
-4.33995e-06
-4.34023e-06
-4.34052e-06
-4.34083e-06
-4.34116e-06
-4.34151e-06
-4.34188e-06
-4.34228e-06
-4.3427e-06
-4.34314e-06
-4.34361e-06
-4.34411e-06
-4.34464e-06
-4.3452e-06
-4.3458e-06
-4.34643e-06
-4.3471e-06
-4.3478e-06
-4.34855e-06
-4.34934e-06
-4.35017e-06
-4.35106e-06
-4.35199e-06
-4.35297e-06
-4.35401e-06
-4.35511e-06
-4.35627e-06
-4.35749e-06
-4.35878e-06
-4.36014e-06
-4.36157e-06
-4.36308e-06
-4.36467e-06
-4.36635e-06
-4.36811e-06
-4.36996e-06
-4.37191e-06
-4.37396e-06
-4.37612e-06
-4.37839e-06
-4.38077e-06
-4.38327e-06
-4.38589e-06
-4.38864e-06
-4.39153e-06
-4.39457e-06
-4.39774e-06
-4.40107e-06
-4.40456e-06
-4.40822e-06
-4.41205e-06
-4.41606e-06
-4.42025e-06
-4.42464e-06
-4.42922e-06
-4.43402e-06
-4.43903e-06
-4.44427e-06
-4.44973e-06
-4.45544e-06
-4.4614e-06
-4.46762e-06
-4.47411e-06
-4.48087e-06
-4.48792e-06
-4.49526e-06
-4.50291e-06
-4.51088e-06
-4.51918e-06
-4.52781e-06
-4.5368e-06
-4.54614e-06
-4.55585e-06
-4.56595e-06
-4.57644e-06
-4.58733e-06
-4.59865e-06
-4.6104e-06
-4.62259e-06
-4.63523e-06
-4.64835e-06
-4.66195e-06
-4.67605e-06
-4.69065e-06
-4.70579e-06
-4.72145e-06
-4.73768e-06
-4.75447e-06
-4.77184e-06
-4.7898e-06
-4.80838e-06
-4.82759e-06
-4.84744e-06
-4.86794e-06
-4.88912e-06
-4.91099e-06
-4.93356e-06
-4.95686e-06
-4.9809e-06
-5.00569e-06
-5.03125e-06
-5.0576e-06
-5.08476e-06
-5.11274e-06
-5.14156e-06
-5.17124e-06
-5.2018e-06
-5.23325e-06
-5.26561e-06
-5.2989e-06
-5.33313e-06
-5.36833e-06
-5.40452e-06
-5.4417e-06
-5.47991e-06
-5.51916e-06
-5.55947e-06
-5.60085e-06
-5.64333e-06
-5.68692e-06
-5.73165e-06
-5.77754e-06
-5.8246e-06
-5.87286e-06
-5.92232e-06
-5.97303e-06
-6.02499e-06
-6.07822e-06
-6.13274e-06
-6.18859e-06
-6.24577e-06
-6.30431e-06
-6.36422e-06
-6.42554e-06
-6.48828e-06
-6.55246e-06
-6.61811e-06
-6.68525e-06
-6.75389e-06
-6.82407e-06
-6.89581e-06
-6.96913e-06
-7.04405e-06
-7.1206e-06
-7.1988e-06
-7.27868e-06
-7.36026e-06
-7.44357e-06
-7.52864e-06
-7.61548e-06
-7.70414e-06
-7.79463e-06
-7.88699e-06
-7.98124e-06
-8.07742e-06
-8.17555e-06
-8.27567e-06
-8.37781e-06
-8.482e-06
-8.58828e-06
-8.69668e-06
-8.80724e-06
-8.91999e-06
-9.03499e-06
-9.15225e-06
-9.27184e-06
-9.39378e-06
-9.51814e-06
-9.64495e-06
-9.77428e-06
-9.90616e-06
-1.00407e-05
-1.01779e-05
-1.03178e-05
-1.04606e-05
-1.06062e-05
-1.07549e-05
-1.09066e-05
-1.10616e-05
-1.12179e-05
-1.13774e-05
-1.15404e-05
-1.17067e-05
-1.18766e-05
-1.205e-05
-1.2227e-05
-1.24077e-05
-1.25921e-05
-1.27802e-05
-1.29722e-05
-1.31682e-05
-1.3368e-05
-1.35718e-05
-1.37797e-05
-1.39915e-05
-1.42075e-05
-1.44274e-05
-1.46513e-05
-1.48791e-05
-1.51107e-05
-1.53459e-05
-1.55844e-05
-1.5826e-05
-1.60702e-05
-1.63165e-05
-1.65643e-05
-1.68127e-05
-1.70607e-05
-1.7307e-05
-1.75503e-05
-1.77885e-05
-1.80195e-05
-1.82407e-05
-1.84489e-05
-1.86403e-05
-1.88105e-05
-1.89543e-05
-1.90659e-05
-1.91384e-05
)
;

boundaryField
{
    fixedWall
    {
        type            calculated;
        value           uniform 0;
    }
    outlet
    {
        type            calculated;
        value           uniform -1.91644e-05;
    }
    defaultFaces
    {
        type            empty;
    }
}


// ************************************************************************* //
