/*--------------------------------*- C++ -*----------------------------------*\
| =========                 |                                                 |
| \\      /  F ield         | OpenFOAM: The Open Source CFD Toolbox           |
|  \\    /   O peration     | Version:  2406                                  |
|   \\  /    A nd           | Website:  www.openfoam.com                      |
|    \\/     M anipulation  |                                                 |
\*---------------------------------------------------------------------------*/
FoamFile
{
    version     2.0;
    format      ascii;
    arch        "LSB;label=32;scalar=64";
    class       volScalarField;
    location    "13.2";
    object      T;
}
// * * * * * * * * * * * * * * * * * * * * * * * * * * * * * * * * * * * * * //

dimensions      [0 0 0 1 0 0 0];

internalField   nonuniform List<scalar> 
1000
(
304.136
324.859
344.204
362.373
379.519
395.764
411.208
425.932
440.005
453.483
466.416
478.848
490.815
502.349
513.481
524.234
534.633
544.698
554.447
563.897
573.063
581.959
590.599
598.993
607.152
615.087
622.806
630.319
637.632
644.754
651.692
658.451
665.039
671.46
677.72
683.825
689.779
695.587
701.253
706.782
712.176
717.44
722.578
727.593
732.488
737.267
741.931
746.485
750.931
755.272
759.509
763.647
767.687
771.631
775.481
779.241
782.911
786.495
789.993
793.408
796.742
799.997
803.173
806.274
809.3
812.254
815.136
817.949
820.693
823.371
825.984
828.533
831.019
833.445
835.81
838.117
840.367
842.56
844.699
846.784
848.817
850.798
852.729
854.611
856.444
858.231
859.971
861.667
863.318
864.926
866.492
868.017
869.501
870.946
872.353
873.722
875.053
876.349
877.61
878.836
880.029
881.188
882.316
883.412
884.478
885.514
886.52
887.498
888.448
889.371
890.268
891.138
891.983
892.804
893.601
894.374
895.124
895.852
896.558
897.243
897.907
898.551
899.176
899.781
900.368
900.937
901.488
902.021
902.538
903.039
903.524
903.993
904.448
904.887
905.313
905.724
906.123
906.508
906.88
907.241
907.589
907.925
908.25
908.565
908.868
909.161
909.445
909.718
909.982
910.237
910.483
910.72
910.949
911.169
911.382
911.588
911.785
911.976
912.16
912.337
912.508
912.672
912.83
912.983
913.129
913.27
913.406
913.537
913.662
913.783
913.9
914.011
914.119
914.222
914.321
914.417
914.508
914.595
914.68
914.761
914.838
914.913
914.984
915.053
915.118
915.182
915.242
915.3
915.355
915.409
915.46
915.508
915.555
915.6
915.643
915.683
915.723
915.76
915.796
915.83
915.863
915.894
915.924
915.952
915.98
916.006
916.03
916.054
916.077
916.098
916.119
916.138
916.157
916.175
916.192
916.208
916.223
916.238
916.252
916.265
916.277
916.289
916.301
916.311
916.322
916.331
916.341
916.349
916.358
916.366
916.373
916.38
916.387
916.393
916.399
916.405
916.41
916.415
916.42
916.425
916.429
916.433
916.437
916.441
916.444
916.447
916.45
916.453
916.456
916.458
916.461
916.463
916.465
916.467
916.469
916.471
916.472
916.474
916.475
916.477
916.478
916.479
916.48
916.481
916.482
916.483
916.484
916.485
916.485
916.486
916.487
916.487
916.488
916.488
916.489
916.489
916.49
916.49
916.49
916.491
916.491
916.491
916.491
916.492
916.492
916.492
916.492
916.493
916.493
916.493
916.493
916.493
916.493
916.493
916.494
916.494
916.494
916.494
916.494
916.494
916.494
916.494
916.494
916.495
916.495
916.495
916.495
916.495
916.495
916.495
916.495
916.495
916.495
916.496
916.496
916.496
916.496
916.496
916.496
916.496
916.496
916.497
916.497
916.497
916.497
916.497
916.497
916.497
916.497
916.498
916.498
916.498
916.498
916.498
916.498
916.499
916.499
916.499
916.499
916.499
916.499
916.5
916.5
916.5
916.5
916.5
916.5
916.501
916.501
916.501
916.501
916.501
916.501
916.502
916.502
916.502
916.502
916.502
916.503
916.503
916.503
916.503
916.503
916.503
916.504
916.504
916.504
916.504
916.504
916.505
916.505
916.505
916.505
916.505
916.505
916.506
916.506
916.506
916.506
916.506
916.506
916.507
916.507
916.507
916.507
916.507
916.507
916.507
916.508
916.508
916.508
916.508
916.508
916.508
916.508
916.509
916.509
916.509
916.509
916.509
916.509
916.509
916.51
916.51
916.51
916.51
916.51
916.51
916.51
916.51
916.51
916.511
916.511
916.511
916.511
916.511
916.511
916.511
916.511
916.511
916.511
916.511
916.512
916.512
916.512
916.512
916.512
916.512
916.512
916.512
916.512
916.512
916.512
916.512
916.512
916.513
916.513
916.513
916.513
916.513
916.513
916.513
916.513
916.513
916.513
916.513
916.513
916.513
916.513
916.513
916.513
916.513
916.514
916.514
916.514
916.514
916.514
916.514
916.514
916.514
916.514
916.514
916.514
916.514
916.514
916.514
916.514
916.514
916.514
916.514
916.514
916.514
916.514
916.514
916.514
916.514
916.514
916.515
916.515
916.515
916.515
916.515
916.515
916.515
916.515
916.515
916.515
916.515
916.515
916.515
916.515
916.515
916.515
916.515
916.515
916.515
916.515
916.515
916.515
916.515
916.515
916.515
916.515
916.515
916.515
916.515
916.515
916.515
916.515
916.515
916.515
916.515
916.515
916.515
916.515
916.516
916.516
916.516
916.516
916.516
916.516
916.516
916.516
916.516
916.516
916.516
916.516
916.516
916.516
916.516
916.516
916.516
916.516
916.516
916.516
916.516
916.516
916.516
916.516
916.516
916.516
916.516
916.516
916.516
916.516
916.516
916.516
916.516
916.516
916.516
916.516
916.516
916.516
916.516
916.517
916.517
916.517
916.517
916.517
916.517
916.517
916.517
916.517
916.517
916.517
916.517
916.517
916.517
916.517
916.517
916.517
916.517
916.517
916.517
916.517
916.517
916.517
916.517
916.517
916.517
916.517
916.517
916.517
916.517
916.517
916.517
916.517
916.517
916.517
916.518
916.518
916.518
916.518
916.518
916.518
916.518
916.518
916.518
916.518
916.518
916.518
916.518
916.518
916.518
916.518
916.518
916.518
916.518
916.518
916.518
916.518
916.518
916.518
916.518
916.518
916.518
916.518
916.518
916.518
916.518
916.518
916.518
916.518
916.518
916.518
916.518
916.518
916.518
916.518
916.518
916.518
916.518
916.518
916.518
916.518
916.518
916.518
916.518
916.518
916.518
916.518
916.518
916.518
916.518
916.518
916.518
916.518
916.518
916.518
916.518
916.518
916.518
916.518
916.518
916.518
916.518
916.518
916.518
916.518
916.518
916.518
916.518
916.518
916.518
916.518
916.518
916.518
916.518
916.518
916.518
916.518
916.518
916.518
916.518
916.518
916.518
916.518
916.518
916.518
916.518
916.518
916.518
916.518
916.518
916.518
916.518
916.518
916.518
916.519
916.519
916.519
916.519
916.519
916.519
916.519
916.519
916.519
916.519
916.519
916.519
916.519
916.519
916.519
916.519
916.519
916.519
916.519
916.519
916.519
916.519
916.519
916.519
916.519
916.519
916.519
916.519
916.519
916.519
916.519
916.519
916.519
916.519
916.519
916.519
916.519
916.519
916.518
916.518
916.518
916.518
916.518
916.518
916.518
916.518
916.517
916.517
916.517
916.517
916.516
916.516
916.516
916.516
916.515
916.515
916.514
916.514
916.513
916.513
916.512
916.512
916.511
916.51
916.51
916.509
916.508
916.507
916.506
916.505
916.504
916.502
916.501
916.499
916.498
916.496
916.494
916.493
916.491
916.488
916.486
916.483
916.481
916.478
916.475
916.472
916.468
916.464
916.46
916.456
916.452
916.447
916.442
916.436
916.43
916.424
916.417
916.41
916.403
916.395
916.386
916.377
916.367
916.357
916.346
916.335
916.322
916.309
916.295
916.281
916.265
916.248
916.231
916.212
916.193
916.172
916.15
916.126
916.101
916.075
916.047
916.018
915.987
915.954
915.92
915.883
915.844
915.804
915.761
915.715
915.668
915.617
915.564
915.509
915.45
915.388
915.323
915.254
915.182
915.107
915.027
914.943
914.856
914.764
914.667
914.566
914.459
914.348
914.231
914.109
913.981
913.846
913.706
913.559
913.406
913.245
913.077
912.902
912.719
912.527
912.328
912.12
911.902
911.676
911.44
911.194
910.938
910.671
910.393
910.104
909.803
909.491
909.166
908.828
908.477
908.112
907.734
907.341
906.933
906.51
906.072
905.617
905.146
904.658
904.153
903.63
903.088
902.528
901.948
901.348
900.728
900.088
899.426
898.742
898.036
897.306
896.554
895.777
894.976
894.15
893.298
892.42
891.515
890.582
889.621
888.632
887.613
886.565
885.486
884.375
883.233
882.058
880.849
879.607
878.329
877.017
875.668
874.281
872.857
871.395
869.892
868.35
866.766
865.14
863.471
861.757
859.999
858.195
856.343
854.443
852.494
850.494
848.443
846.339
844.18
841.966
839.695
837.366
834.976
832.526
830.012
827.434
824.789
822.076
819.293
816.438
813.508
810.503
807.419
804.255
801.007
797.674
794.253
790.741
787.135
783.432
779.63
775.725
771.714
767.594
763.36
759.009
754.537
749.941
745.215
740.357
735.36
730.22
724.933
719.493
713.895
708.169
702.295
696.194
689.913
683.447
676.789
669.934
662.875
655.605
648.119
640.409
632.47
624.295
615.877
607.212
598.293
589.115
579.674
569.964
559.983
549.728
539.198
528.391
517.309
505.954
494.331
482.446
470.307
457.926
445.316
432.496
419.485
406.308
392.993
379.574
366.088
352.578
339.093
325.687
312.423
299.368
)
;

boundaryField
{
    fixedWall
    {
        type            fixedValue;
        value           uniform 293;
    }
    outlet
    {
        type            inletOutlet;
        inletValue      uniform 293;
        value           uniform 293;
    }
    defaultFaces
    {
        type            empty;
    }
}


// ************************************************************************* //
