/*--------------------------------*- C++ -*----------------------------------*\
| =========                 |                                                 |
| \\      /  F ield         | OpenFOAM: The Open Source CFD Toolbox           |
|  \\    /   O peration     | Version:  2406                                  |
|   \\  /    A nd           | Website:  www.openfoam.com                      |
|    \\/     M anipulation  |                                                 |
\*---------------------------------------------------------------------------*/
FoamFile
{
    version     2.0;
    format      ascii;
    arch        "LSB;label=32;scalar=64";
    class       volScalarField;
    location    "13.9";
    object      O2;
}
// * * * * * * * * * * * * * * * * * * * * * * * * * * * * * * * * * * * * * //

dimensions      [0 0 0 0 0 0 0];

internalField   nonuniform List<scalar> 
1000
(
1.00949e-06
1.00812e-06
1.0056e-06
1.00209e-06
9.97733e-07
9.92624e-07
9.86849e-07
9.80478e-07
9.73573e-07
9.66184e-07
9.58358e-07
9.50133e-07
9.41546e-07
9.32627e-07
9.23408e-07
9.13912e-07
9.04166e-07
8.9419e-07
8.84006e-07
8.73633e-07
8.63089e-07
8.5239e-07
8.41552e-07
8.30591e-07
8.1952e-07
8.08352e-07
7.97102e-07
7.8578e-07
7.744e-07
7.62971e-07
7.51505e-07
7.40013e-07
7.28505e-07
7.16991e-07
7.05481e-07
6.93984e-07
6.82509e-07
6.71065e-07
6.59661e-07
6.48305e-07
6.37006e-07
6.25772e-07
6.1461e-07
6.03529e-07
5.92534e-07
5.81634e-07
5.70836e-07
5.60145e-07
5.49568e-07
5.39111e-07
5.28779e-07
5.18579e-07
5.08514e-07
4.9859e-07
4.88812e-07
4.79182e-07
4.69705e-07
4.60384e-07
4.51223e-07
4.42223e-07
4.33388e-07
4.2472e-07
4.1622e-07
4.07889e-07
3.9973e-07
3.91742e-07
3.83926e-07
3.76284e-07
3.68813e-07
3.61515e-07
3.54389e-07
3.47435e-07
3.4065e-07
3.34035e-07
3.27588e-07
3.21307e-07
3.15191e-07
3.09238e-07
3.03445e-07
2.97812e-07
2.92335e-07
2.87013e-07
2.81842e-07
2.76821e-07
2.71947e-07
2.67217e-07
2.62628e-07
2.58179e-07
2.53865e-07
2.49685e-07
2.45634e-07
2.41712e-07
2.37913e-07
2.34237e-07
2.30679e-07
2.27238e-07
2.2391e-07
2.20691e-07
2.17581e-07
2.14575e-07
2.11671e-07
2.08866e-07
2.06158e-07
2.03544e-07
2.01021e-07
1.98586e-07
1.96238e-07
1.93973e-07
1.9179e-07
1.89685e-07
1.87657e-07
1.85702e-07
1.8382e-07
1.82007e-07
1.80261e-07
1.78581e-07
1.76965e-07
1.75409e-07
1.73913e-07
1.72474e-07
1.71091e-07
1.69761e-07
1.68483e-07
1.67256e-07
1.66076e-07
1.64944e-07
1.63857e-07
1.62814e-07
1.61813e-07
1.60853e-07
1.59933e-07
1.5905e-07
1.58204e-07
1.57393e-07
1.56617e-07
1.55873e-07
1.55162e-07
1.5448e-07
1.53829e-07
1.53206e-07
1.5261e-07
1.52041e-07
1.51497e-07
1.50977e-07
1.50482e-07
1.50009e-07
1.49557e-07
1.49127e-07
1.48718e-07
1.48328e-07
1.47956e-07
1.47603e-07
1.47267e-07
1.46948e-07
1.46645e-07
1.46357e-07
1.46084e-07
1.45826e-07
1.45581e-07
1.45349e-07
1.45131e-07
1.44924e-07
1.44729e-07
1.44546e-07
1.44373e-07
1.4421e-07
1.44058e-07
1.43915e-07
1.43781e-07
1.43657e-07
1.4354e-07
1.43432e-07
1.43331e-07
1.43239e-07
1.43153e-07
1.43074e-07
1.43002e-07
1.42936e-07
1.42876e-07
1.42822e-07
1.42774e-07
1.42731e-07
1.42693e-07
1.4266e-07
1.42631e-07
1.42608e-07
1.42588e-07
1.42573e-07
1.42562e-07
1.42554e-07
1.4255e-07
1.4255e-07
1.42553e-07
1.42559e-07
1.42568e-07
1.4258e-07
1.42595e-07
1.42613e-07
1.42633e-07
1.42655e-07
1.4268e-07
1.42708e-07
1.42737e-07
1.42768e-07
1.42802e-07
1.42837e-07
1.42874e-07
1.42913e-07
1.42954e-07
1.42996e-07
1.43039e-07
1.43084e-07
1.4313e-07
1.43178e-07
1.43227e-07
1.43277e-07
1.43328e-07
1.43381e-07
1.43434e-07
1.43489e-07
1.43544e-07
1.436e-07
1.43657e-07
1.43715e-07
1.43774e-07
1.43834e-07
1.43894e-07
1.43955e-07
1.44016e-07
1.44079e-07
1.44142e-07
1.44205e-07
1.44269e-07
1.44334e-07
1.44399e-07
1.44464e-07
1.4453e-07
1.44596e-07
1.44663e-07
1.4473e-07
1.44798e-07
1.44866e-07
1.44934e-07
1.45003e-07
1.45072e-07
1.45141e-07
1.45211e-07
1.45281e-07
1.45351e-07
1.45421e-07
1.45492e-07
1.45563e-07
1.45634e-07
1.45705e-07
1.45777e-07
1.45848e-07
1.4592e-07
1.45992e-07
1.46065e-07
1.46137e-07
1.4621e-07
1.46283e-07
1.46356e-07
1.46429e-07
1.46502e-07
1.46575e-07
1.46648e-07
1.46722e-07
1.46796e-07
1.4687e-07
1.46944e-07
1.47018e-07
1.47092e-07
1.47166e-07
1.47241e-07
1.47315e-07
1.4739e-07
1.47465e-07
1.47539e-07
1.47614e-07
1.47689e-07
1.47764e-07
1.47839e-07
1.47915e-07
1.4799e-07
1.48065e-07
1.48141e-07
1.48216e-07
1.48292e-07
1.48368e-07
1.48443e-07
1.48519e-07
1.48595e-07
1.48671e-07
1.48747e-07
1.48823e-07
1.48899e-07
1.48976e-07
1.49052e-07
1.49129e-07
1.49205e-07
1.49282e-07
1.49358e-07
1.49435e-07
1.49512e-07
1.49588e-07
1.49665e-07
1.49742e-07
1.49819e-07
1.49896e-07
1.49973e-07
1.50051e-07
1.50128e-07
1.50205e-07
1.50283e-07
1.5036e-07
1.50438e-07
1.50515e-07
1.50593e-07
1.50671e-07
1.50749e-07
1.50827e-07
1.50905e-07
1.50983e-07
1.51061e-07
1.51139e-07
1.51217e-07
1.51296e-07
1.51374e-07
1.51453e-07
1.51531e-07
1.5161e-07
1.51688e-07
1.51767e-07
1.51846e-07
1.51925e-07
1.52004e-07
1.52083e-07
1.52162e-07
1.52241e-07
1.52321e-07
1.524e-07
1.52479e-07
1.52559e-07
1.52639e-07
1.52718e-07
1.52798e-07
1.52878e-07
1.52958e-07
1.53038e-07
1.53118e-07
1.53198e-07
1.53278e-07
1.53359e-07
1.53439e-07
1.5352e-07
1.536e-07
1.53681e-07
1.53762e-07
1.53843e-07
1.53923e-07
1.54005e-07
1.54086e-07
1.54167e-07
1.54248e-07
1.54329e-07
1.54411e-07
1.54492e-07
1.54574e-07
1.54656e-07
1.54737e-07
1.54819e-07
1.54901e-07
1.54983e-07
1.55066e-07
1.55148e-07
1.5523e-07
1.55313e-07
1.55395e-07
1.55478e-07
1.5556e-07
1.55643e-07
1.55726e-07
1.55809e-07
1.55892e-07
1.55975e-07
1.56058e-07
1.56142e-07
1.56225e-07
1.56309e-07
1.56392e-07
1.56476e-07
1.5656e-07
1.56643e-07
1.56727e-07
1.56811e-07
1.56896e-07
1.5698e-07
1.57064e-07
1.57149e-07
1.57233e-07
1.57318e-07
1.57403e-07
1.57487e-07
1.57572e-07
1.57657e-07
1.57742e-07
1.57828e-07
1.57913e-07
1.57998e-07
1.58084e-07
1.58169e-07
1.58255e-07
1.58341e-07
1.58427e-07
1.58513e-07
1.58599e-07
1.58685e-07
1.58771e-07
1.58857e-07
1.58944e-07
1.5903e-07
1.59117e-07
1.59204e-07
1.5929e-07
1.59377e-07
1.59464e-07
1.59552e-07
1.59639e-07
1.59726e-07
1.59813e-07
1.59901e-07
1.59989e-07
1.60076e-07
1.60164e-07
1.60252e-07
1.6034e-07
1.60428e-07
1.60516e-07
1.60604e-07
1.60693e-07
1.60781e-07
1.6087e-07
1.60959e-07
1.61047e-07
1.61136e-07
1.61225e-07
1.61314e-07
1.61403e-07
1.61493e-07
1.61582e-07
1.61672e-07
1.61761e-07
1.61851e-07
1.6194e-07
1.6203e-07
1.6212e-07
1.6221e-07
1.62301e-07
1.62391e-07
1.62481e-07
1.62572e-07
1.62662e-07
1.62753e-07
1.62844e-07
1.62935e-07
1.63026e-07
1.63117e-07
1.63208e-07
1.63299e-07
1.63391e-07
1.63482e-07
1.63574e-07
1.63665e-07
1.63757e-07
1.63849e-07
1.63941e-07
1.64033e-07
1.64126e-07
1.64218e-07
1.6431e-07
1.64403e-07
1.64495e-07
1.64588e-07
1.64681e-07
1.64774e-07
1.64867e-07
1.6496e-07
1.65054e-07
1.65147e-07
1.6524e-07
1.65334e-07
1.65428e-07
1.65522e-07
1.65616e-07
1.6571e-07
1.65804e-07
1.65898e-07
1.65992e-07
1.66086e-07
1.66181e-07
1.66276e-07
1.66371e-07
1.66465e-07
1.6656e-07
1.66656e-07
1.66751e-07
1.66846e-07
1.66942e-07
1.67037e-07
1.67133e-07
1.67229e-07
1.67324e-07
1.6742e-07
1.67517e-07
1.67613e-07
1.67709e-07
1.67805e-07
1.67902e-07
1.67998e-07
1.68095e-07
1.68192e-07
1.68289e-07
1.68386e-07
1.68483e-07
1.68581e-07
1.68678e-07
1.68776e-07
1.68873e-07
1.68971e-07
1.69069e-07
1.69167e-07
1.69265e-07
1.69363e-07
1.69461e-07
1.6956e-07
1.69658e-07
1.69757e-07
1.69856e-07
1.69955e-07
1.70054e-07
1.70153e-07
1.70252e-07
1.70351e-07
1.70451e-07
1.7055e-07
1.7065e-07
1.7075e-07
1.7085e-07
1.7095e-07
1.7105e-07
1.7115e-07
1.71251e-07
1.71351e-07
1.71452e-07
1.71552e-07
1.71653e-07
1.71754e-07
1.71855e-07
1.71956e-07
1.72058e-07
1.72159e-07
1.72261e-07
1.72363e-07
1.72464e-07
1.72566e-07
1.72668e-07
1.72771e-07
1.72873e-07
1.72975e-07
1.73078e-07
1.7318e-07
1.73283e-07
1.73386e-07
1.73489e-07
1.73592e-07
1.73695e-07
1.73799e-07
1.73902e-07
1.74006e-07
1.7411e-07
1.74214e-07
1.74318e-07
1.74422e-07
1.74526e-07
1.7463e-07
1.74735e-07
1.74839e-07
1.74944e-07
1.75049e-07
1.75154e-07
1.75259e-07
1.75364e-07
1.7547e-07
1.75575e-07
1.75681e-07
1.75787e-07
1.75893e-07
1.75999e-07
1.76105e-07
1.76211e-07
1.76318e-07
1.76424e-07
1.76531e-07
1.76638e-07
1.76745e-07
1.76852e-07
1.76959e-07
1.77066e-07
1.77174e-07
1.77281e-07
1.77389e-07
1.77497e-07
1.77605e-07
1.77713e-07
1.77821e-07
1.7793e-07
1.78038e-07
1.78147e-07
1.78256e-07
1.78365e-07
1.78474e-07
1.78583e-07
1.78692e-07
1.78802e-07
1.78911e-07
1.79021e-07
1.79131e-07
1.79241e-07
1.79351e-07
1.79461e-07
1.79572e-07
1.79682e-07
1.79793e-07
1.79904e-07
1.80015e-07
1.80126e-07
1.80237e-07
1.80349e-07
1.8046e-07
1.80572e-07
1.80683e-07
1.80795e-07
1.80908e-07
1.8102e-07
1.81132e-07
1.81245e-07
1.81357e-07
1.8147e-07
1.81583e-07
1.81696e-07
1.81809e-07
1.81922e-07
1.82036e-07
1.8215e-07
1.82263e-07
1.82377e-07
1.82491e-07
1.82605e-07
1.8272e-07
1.82834e-07
1.82949e-07
1.83064e-07
1.83178e-07
1.83294e-07
1.83409e-07
1.83524e-07
1.8364e-07
1.83755e-07
1.83871e-07
1.83987e-07
1.84103e-07
1.84219e-07
1.84335e-07
1.84452e-07
1.84569e-07
1.84685e-07
1.84802e-07
1.84919e-07
1.85036e-07
1.85153e-07
1.85271e-07
1.85388e-07
1.85506e-07
1.85624e-07
1.85742e-07
1.8586e-07
1.85979e-07
1.86097e-07
1.86216e-07
1.86334e-07
1.86453e-07
1.86573e-07
1.86692e-07
1.86811e-07
1.86931e-07
1.8705e-07
1.8717e-07
1.8729e-07
1.8741e-07
1.8753e-07
1.87651e-07
1.87771e-07
1.87892e-07
1.88013e-07
1.88134e-07
1.88255e-07
1.88377e-07
1.88498e-07
1.8862e-07
1.88742e-07
1.88864e-07
1.88986e-07
1.89108e-07
1.89231e-07
1.89354e-07
1.89476e-07
1.89599e-07
1.89723e-07
1.89846e-07
1.8997e-07
1.90093e-07
1.90217e-07
1.90341e-07
1.90466e-07
1.9059e-07
1.90715e-07
1.9084e-07
1.90965e-07
1.9109e-07
1.91215e-07
1.91341e-07
1.91467e-07
1.91592e-07
1.91719e-07
1.91845e-07
1.91972e-07
1.92099e-07
1.92226e-07
1.92353e-07
1.9248e-07
1.92608e-07
1.92736e-07
1.92864e-07
1.92993e-07
1.93121e-07
1.9325e-07
1.9338e-07
1.93509e-07
1.93639e-07
1.93769e-07
1.93899e-07
1.9403e-07
1.94161e-07
1.94292e-07
1.94424e-07
1.94556e-07
1.94688e-07
1.94821e-07
1.94954e-07
1.95088e-07
1.95222e-07
1.95356e-07
1.95491e-07
1.95626e-07
1.95762e-07
1.95899e-07
1.96036e-07
1.96173e-07
1.96311e-07
1.9645e-07
1.9659e-07
1.9673e-07
1.96871e-07
1.97012e-07
1.97155e-07
1.97298e-07
1.97442e-07
1.97587e-07
1.97733e-07
1.97881e-07
1.98029e-07
1.98178e-07
1.98329e-07
1.98481e-07
1.98634e-07
1.98789e-07
1.98946e-07
1.99104e-07
1.99264e-07
1.99425e-07
1.99589e-07
1.99754e-07
1.99922e-07
2.00092e-07
2.00264e-07
2.00439e-07
2.00617e-07
2.00797e-07
2.00981e-07
2.01167e-07
2.01357e-07
2.01551e-07
2.01748e-07
2.0195e-07
2.02155e-07
2.02365e-07
2.0258e-07
2.02799e-07
2.03024e-07
2.03254e-07
2.0349e-07
2.03733e-07
2.03981e-07
2.04237e-07
2.045e-07
2.0477e-07
2.05049e-07
2.05336e-07
2.05632e-07
2.05937e-07
2.06252e-07
2.06578e-07
2.06915e-07
2.07264e-07
2.07624e-07
2.07998e-07
2.08385e-07
2.08786e-07
2.09202e-07
2.09635e-07
2.10083e-07
2.10549e-07
2.11034e-07
2.11538e-07
2.12062e-07
2.12607e-07
2.13174e-07
2.13765e-07
2.1438e-07
2.15022e-07
2.1569e-07
2.16386e-07
2.17113e-07
2.1787e-07
2.1866e-07
2.19484e-07
2.20344e-07
2.21241e-07
2.22177e-07
2.23155e-07
2.24175e-07
2.2524e-07
2.26351e-07
2.27512e-07
2.28724e-07
2.29989e-07
2.31309e-07
2.32688e-07
2.34127e-07
2.3563e-07
2.37198e-07
2.38836e-07
2.40544e-07
2.42327e-07
2.44188e-07
2.46129e-07
2.48155e-07
2.50267e-07
2.5247e-07
2.54768e-07
2.57163e-07
2.59661e-07
2.62263e-07
2.64975e-07
2.67801e-07
2.70744e-07
2.73809e-07
2.77e-07
2.80322e-07
2.83779e-07
2.87376e-07
2.91116e-07
2.95006e-07
2.9905e-07
3.03252e-07
3.07619e-07
3.12153e-07
3.16862e-07
3.21748e-07
3.26819e-07
3.32079e-07
3.37532e-07
3.43184e-07
3.4904e-07
3.55104e-07
3.61382e-07
3.67879e-07
3.74598e-07
3.81545e-07
3.88724e-07
3.96138e-07
4.03792e-07
4.11689e-07
4.19833e-07
4.28226e-07
4.36872e-07
4.45771e-07
4.54927e-07
4.6434e-07
4.7401e-07
4.83938e-07
4.94123e-07
5.04563e-07
5.15256e-07
5.262e-07
5.3739e-07
5.4882e-07
5.60486e-07
5.7238e-07
5.84493e-07
5.96816e-07
6.09339e-07
6.22048e-07
6.3493e-07
6.4797e-07
6.61151e-07
6.74454e-07
6.87861e-07
7.01348e-07
7.14893e-07
7.28471e-07
7.42054e-07
7.55614e-07
7.6912e-07
7.82541e-07
7.95843e-07
8.0899e-07
8.21945e-07
8.3467e-07
8.47124e-07
8.59267e-07
8.71056e-07
8.82447e-07
8.93396e-07
9.03858e-07
9.13786e-07
9.23136e-07
9.31859e-07
9.39911e-07
9.47243e-07
9.53811e-07
9.59569e-07
9.64473e-07
9.68477e-07
9.71541e-07
9.73622e-07
9.7467e-07
9.74669e-07
9.73573e-07
9.71346e-07
9.67957e-07
9.63376e-07
9.57576e-07
9.50531e-07
9.4222e-07
9.32622e-07
9.21722e-07
9.09505e-07
8.9596e-07
8.8108e-07
8.64861e-07
8.47302e-07
8.28406e-07
8.08179e-07
7.86634e-07
7.63784e-07
7.39649e-07
7.14255e-07
6.87631e-07
6.59812e-07
6.3084e-07
6.00763e-07
5.69638e-07
5.37526e-07
5.045e-07
4.70641e-07
4.36039e-07
4.00799e-07
3.65033e-07
3.28871e-07
2.92455e-07
2.55943e-07
2.1951e-07
1.83349e-07
1.47673e-07
1.12712e-07
7.87162e-08
4.5955e-08
1.47123e-08
)
;

boundaryField
{
    fixedWall
    {
        type            zeroGradient;
    }
    outlet
    {
        type            inletOutlet;
        inletValue      uniform 0;
        value           uniform 0;
    }
    defaultFaces
    {
        type            empty;
    }
}


// ************************************************************************* //
