/*--------------------------------*- C++ -*----------------------------------*\
| =========                 |                                                 |
| \\      /  F ield         | OpenFOAM: The Open Source CFD Toolbox           |
|  \\    /   O peration     | Version:  2406                                  |
|   \\  /    A nd           | Website:  www.openfoam.com                      |
|    \\/     M anipulation  |                                                 |
\*---------------------------------------------------------------------------*/
FoamFile
{
    version     2.0;
    format      ascii;
    arch        "LSB;label=32;scalar=64";
    class       volVectorField;
    location    "13.9";
    object      U;
}
// * * * * * * * * * * * * * * * * * * * * * * * * * * * * * * * * * * * * * //

dimensions      [0 1 -1 0 0 0 0];

internalField   nonuniform List<vector> 
1000
(
(-5.83899e-07 0 0)
(-2.8257e-06 0 0)
(-7.32874e-06 0 0)
(-1.36035e-05 0 0)
(-2.12746e-05 0 0)
(-3.01118e-05 0 0)
(-3.99539e-05 0 0)
(-5.06647e-05 0 0)
(-6.21306e-05 0 0)
(-7.42526e-05 0 0)
(-8.69487e-05 0 0)
(-0.000100147 0 0)
(-0.000113787 0 0)
(-0.000127814 0 0)
(-0.000142181 0 0)
(-0.000156847 0 0)
(-0.000171776 0 0)
(-0.000186931 0 0)
(-0.000202286 0 0)
(-0.000217812 0 0)
(-0.000233486 0 0)
(-0.000249284 0 0)
(-0.000265188 0 0)
(-0.000281179 0 0)
(-0.000297239 0 0)
(-0.000313352 0 0)
(-0.000329506 0 0)
(-0.000345685 0 0)
(-0.000361879 0 0)
(-0.000378073 0 0)
(-0.00039426 0 0)
(-0.000410427 0 0)
(-0.000426568 0 0)
(-0.00044267 0 0)
(-0.000458728 0 0)
(-0.000474732 0 0)
(-0.000490677 0 0)
(-0.000506555 0 0)
(-0.000522359 0 0)
(-0.000538085 0 0)
(-0.000553726 0 0)
(-0.000569276 0 0)
(-0.000584732 0 0)
(-0.000600087 0 0)
(-0.000615338 0 0)
(-0.00063048 0 0)
(-0.000645509 0 0)
(-0.000660423 0 0)
(-0.000675217 0 0)
(-0.000689887 0 0)
(-0.000704433 0 0)
(-0.000718848 0 0)
(-0.000733132 0 0)
(-0.000747281 0 0)
(-0.000761295 0 0)
(-0.000775169 0 0)
(-0.000788902 0 0)
(-0.000802493 0 0)
(-0.000815939 0 0)
(-0.00082924 0 0)
(-0.000842392 0 0)
(-0.000855396 0 0)
(-0.00086825 0 0)
(-0.000880952 0 0)
(-0.000893502 0 0)
(-0.000905899 0 0)
(-0.000918142 0 0)
(-0.00093023 0 0)
(-0.000942163 0 0)
(-0.00095394 0 0)
(-0.000965561 0 0)
(-0.000977025 0 0)
(-0.000988334 0 0)
(-0.000999484 0 0)
(-0.00101048 0 0)
(-0.00102132 0 0)
(-0.001032 0 0)
(-0.00104252 0 0)
(-0.00105289 0 0)
(-0.0010631 0 0)
(-0.00107316 0 0)
(-0.00108306 0 0)
(-0.0010928 0 0)
(-0.00110239 0 0)
(-0.00111183 0 0)
(-0.00112112 0 0)
(-0.00113025 0 0)
(-0.00113923 0 0)
(-0.00114806 0 0)
(-0.00115674 0 0)
(-0.00116527 0 0)
(-0.00117366 0 0)
(-0.00118189 0 0)
(-0.00118999 0 0)
(-0.00119793 0 0)
(-0.00120574 0 0)
(-0.0012134 0 0)
(-0.00122092 0 0)
(-0.0012283 0 0)
(-0.00123554 0 0)
(-0.00124264 0 0)
(-0.00124961 0 0)
(-0.00125644 0 0)
(-0.00126314 0 0)
(-0.0012697 0 0)
(-0.00127614 0 0)
(-0.00128244 0 0)
(-0.00128862 0 0)
(-0.00129467 0 0)
(-0.0013006 0 0)
(-0.0013064 0 0)
(-0.00131209 0 0)
(-0.00131765 0 0)
(-0.00132309 0 0)
(-0.00132841 0 0)
(-0.00133362 0 0)
(-0.00133872 0 0)
(-0.0013437 0 0)
(-0.00134857 0 0)
(-0.00135334 0 0)
(-0.00135799 0 0)
(-0.00136254 0 0)
(-0.00136698 0 0)
(-0.00137132 0 0)
(-0.00137556 0 0)
(-0.0013797 0 0)
(-0.00138374 0 0)
(-0.00138768 0 0)
(-0.00139153 0 0)
(-0.00139529 0 0)
(-0.00139895 0 0)
(-0.00140252 0 0)
(-0.00140601 0 0)
(-0.00140941 0 0)
(-0.00141272 0 0)
(-0.00141595 0 0)
(-0.00141909 0 0)
(-0.00142215 0 0)
(-0.00142514 0 0)
(-0.00142805 0 0)
(-0.00143088 0 0)
(-0.00143363 0 0)
(-0.00143631 0 0)
(-0.00143892 0 0)
(-0.00144146 0 0)
(-0.00144393 0 0)
(-0.00144633 0 0)
(-0.00144867 0 0)
(-0.00145094 0 0)
(-0.00145315 0 0)
(-0.0014553 0 0)
(-0.00145738 0 0)
(-0.00145941 0 0)
(-0.00146137 0 0)
(-0.00146328 0 0)
(-0.00146514 0 0)
(-0.00146694 0 0)
(-0.00146869 0 0)
(-0.00147038 0 0)
(-0.00147203 0 0)
(-0.00147362 0 0)
(-0.00147517 0 0)
(-0.00147667 0 0)
(-0.00147813 0 0)
(-0.00147954 0 0)
(-0.0014809 0 0)
(-0.00148223 0 0)
(-0.00148351 0 0)
(-0.00148475 0 0)
(-0.00148596 0 0)
(-0.00148712 0 0)
(-0.00148824 0 0)
(-0.00148933 0 0)
(-0.00149039 0 0)
(-0.00149141 0 0)
(-0.0014924 0 0)
(-0.00149336 0 0)
(-0.00149428 0 0)
(-0.00149517 0 0)
(-0.00149604 0 0)
(-0.00149687 0 0)
(-0.00149767 0 0)
(-0.00149845 0 0)
(-0.0014992 0 0)
(-0.00149992 0 0)
(-0.00150062 0 0)
(-0.0015013 0 0)
(-0.00150196 0 0)
(-0.00150259 0 0)
(-0.0015032 0 0)
(-0.00150378 0 0)
(-0.00150435 0 0)
(-0.00150489 0 0)
(-0.00150542 0 0)
(-0.00150593 0 0)
(-0.00150641 0 0)
(-0.00150688 0 0)
(-0.00150734 0 0)
(-0.00150777 0 0)
(-0.00150819 0 0)
(-0.0015086 0 0)
(-0.00150898 0 0)
(-0.00150936 0 0)
(-0.00150971 0 0)
(-0.00151006 0 0)
(-0.00151039 0 0)
(-0.00151071 0 0)
(-0.00151102 0 0)
(-0.00151131 0 0)
(-0.0015116 0 0)
(-0.00151187 0 0)
(-0.00151213 0 0)
(-0.00151238 0 0)
(-0.00151263 0 0)
(-0.00151286 0 0)
(-0.00151308 0 0)
(-0.00151329 0 0)
(-0.0015135 0 0)
(-0.00151369 0 0)
(-0.00151388 0 0)
(-0.00151406 0 0)
(-0.00151424 0 0)
(-0.0015144 0 0)
(-0.00151456 0 0)
(-0.00151471 0 0)
(-0.00151486 0 0)
(-0.001515 0 0)
(-0.00151513 0 0)
(-0.00151526 0 0)
(-0.00151538 0 0)
(-0.0015155 0 0)
(-0.00151561 0 0)
(-0.00151571 0 0)
(-0.00151582 0 0)
(-0.00151591 0 0)
(-0.00151601 0 0)
(-0.00151609 0 0)
(-0.00151618 0 0)
(-0.00151626 0 0)
(-0.00151634 0 0)
(-0.00151641 0 0)
(-0.00151648 0 0)
(-0.00151655 0 0)
(-0.00151661 0 0)
(-0.00151667 0 0)
(-0.00151673 0 0)
(-0.00151679 0 0)
(-0.00151684 0 0)
(-0.00151689 0 0)
(-0.00151694 0 0)
(-0.00151698 0 0)
(-0.00151703 0 0)
(-0.00151707 0 0)
(-0.00151711 0 0)
(-0.00151714 0 0)
(-0.00151718 0 0)
(-0.00151721 0 0)
(-0.00151724 0 0)
(-0.00151728 0 0)
(-0.0015173 0 0)
(-0.00151733 0 0)
(-0.00151736 0 0)
(-0.00151738 0 0)
(-0.0015174 0 0)
(-0.00151743 0 0)
(-0.00151745 0 0)
(-0.00151747 0 0)
(-0.00151748 0 0)
(-0.0015175 0 0)
(-0.00151752 0 0)
(-0.00151753 0 0)
(-0.00151755 0 0)
(-0.00151756 0 0)
(-0.00151758 0 0)
(-0.00151759 0 0)
(-0.0015176 0 0)
(-0.00151761 0 0)
(-0.00151762 0 0)
(-0.00151763 0 0)
(-0.00151764 0 0)
(-0.00151765 0 0)
(-0.00151765 0 0)
(-0.00151766 0 0)
(-0.00151767 0 0)
(-0.00151767 0 0)
(-0.00151768 0 0)
(-0.00151769 0 0)
(-0.00151769 0 0)
(-0.0015177 0 0)
(-0.0015177 0 0)
(-0.00151771 0 0)
(-0.00151771 0 0)
(-0.00151771 0 0)
(-0.00151771 0 0)
(-0.00151772 0 0)
(-0.00151772 0 0)
(-0.00151772 0 0)
(-0.00151773 0 0)
(-0.00151773 0 0)
(-0.00151773 0 0)
(-0.00151773 0 0)
(-0.00151773 0 0)
(-0.00151773 0 0)
(-0.00151774 0 0)
(-0.00151774 0 0)
(-0.00151774 0 0)
(-0.00151774 0 0)
(-0.00151774 0 0)
(-0.00151774 0 0)
(-0.00151774 0 0)
(-0.00151774 0 0)
(-0.00151774 0 0)
(-0.00151774 0 0)
(-0.00151774 0 0)
(-0.00151774 0 0)
(-0.00151774 0 0)
(-0.00151774 0 0)
(-0.00151774 0 0)
(-0.00151774 0 0)
(-0.00151774 0 0)
(-0.00151774 0 0)
(-0.00151774 0 0)
(-0.00151774 0 0)
(-0.00151774 0 0)
(-0.00151774 0 0)
(-0.00151774 0 0)
(-0.00151774 0 0)
(-0.00151774 0 0)
(-0.00151774 0 0)
(-0.00151774 0 0)
(-0.00151774 0 0)
(-0.00151774 0 0)
(-0.00151774 0 0)
(-0.00151774 0 0)
(-0.00151774 0 0)
(-0.00151774 0 0)
(-0.00151774 0 0)
(-0.00151774 0 0)
(-0.00151774 0 0)
(-0.00151774 0 0)
(-0.00151773 0 0)
(-0.00151774 0 0)
(-0.00151773 0 0)
(-0.00151774 0 0)
(-0.00151773 0 0)
(-0.00151773 0 0)
(-0.00151773 0 0)
(-0.00151773 0 0)
(-0.00151773 0 0)
(-0.00151773 0 0)
(-0.00151773 0 0)
(-0.00151773 0 0)
(-0.00151773 0 0)
(-0.00151773 0 0)
(-0.00151773 0 0)
(-0.00151773 0 0)
(-0.00151773 0 0)
(-0.00151773 0 0)
(-0.00151773 0 0)
(-0.00151773 0 0)
(-0.00151773 0 0)
(-0.00151773 0 0)
(-0.00151773 0 0)
(-0.00151773 0 0)
(-0.00151773 0 0)
(-0.00151773 0 0)
(-0.00151773 0 0)
(-0.00151773 0 0)
(-0.00151773 0 0)
(-0.00151773 0 0)
(-0.00151773 0 0)
(-0.00151773 0 0)
(-0.00151773 0 0)
(-0.00151773 0 0)
(-0.00151773 0 0)
(-0.00151773 0 0)
(-0.00151773 0 0)
(-0.00151773 0 0)
(-0.00151773 0 0)
(-0.00151773 0 0)
(-0.00151773 0 0)
(-0.00151773 0 0)
(-0.00151773 0 0)
(-0.00151773 0 0)
(-0.00151773 0 0)
(-0.00151773 0 0)
(-0.00151773 0 0)
(-0.00151773 0 0)
(-0.00151773 0 0)
(-0.00151773 0 0)
(-0.00151774 0 0)
(-0.00151774 0 0)
(-0.00151774 0 0)
(-0.00151774 0 0)
(-0.00151774 0 0)
(-0.00151774 0 0)
(-0.00151774 0 0)
(-0.00151774 0 0)
(-0.00151774 0 0)
(-0.00151774 0 0)
(-0.00151774 0 0)
(-0.00151774 0 0)
(-0.00151774 0 0)
(-0.00151774 0 0)
(-0.00151774 0 0)
(-0.00151774 0 0)
(-0.00151774 0 0)
(-0.00151774 0 0)
(-0.00151774 0 0)
(-0.00151774 0 0)
(-0.00151774 0 0)
(-0.00151774 0 0)
(-0.00151774 0 0)
(-0.00151774 0 0)
(-0.00151774 0 0)
(-0.00151774 0 0)
(-0.00151774 0 0)
(-0.00151774 0 0)
(-0.00151774 0 0)
(-0.00151774 0 0)
(-0.00151774 0 0)
(-0.00151774 0 0)
(-0.00151774 0 0)
(-0.00151775 0 0)
(-0.00151774 0 0)
(-0.00151775 0 0)
(-0.00151775 0 0)
(-0.00151775 0 0)
(-0.00151775 0 0)
(-0.00151775 0 0)
(-0.00151775 0 0)
(-0.00151775 0 0)
(-0.00151775 0 0)
(-0.00151775 0 0)
(-0.00151775 0 0)
(-0.00151775 0 0)
(-0.00151775 0 0)
(-0.00151775 0 0)
(-0.00151775 0 0)
(-0.00151775 0 0)
(-0.00151775 0 0)
(-0.00151775 0 0)
(-0.00151775 0 0)
(-0.00151775 0 0)
(-0.00151775 0 0)
(-0.00151775 0 0)
(-0.00151775 0 0)
(-0.00151775 0 0)
(-0.00151775 0 0)
(-0.00151775 0 0)
(-0.00151775 0 0)
(-0.00151775 0 0)
(-0.00151775 0 0)
(-0.00151775 0 0)
(-0.00151775 0 0)
(-0.00151775 0 0)
(-0.00151775 0 0)
(-0.00151775 0 0)
(-0.00151775 0 0)
(-0.00151775 0 0)
(-0.00151775 0 0)
(-0.00151775 0 0)
(-0.00151775 0 0)
(-0.00151775 0 0)
(-0.00151775 0 0)
(-0.00151775 0 0)
(-0.00151775 0 0)
(-0.00151775 0 0)
(-0.00151775 0 0)
(-0.00151775 0 0)
(-0.00151775 0 0)
(-0.00151775 0 0)
(-0.00151775 0 0)
(-0.00151775 0 0)
(-0.00151775 0 0)
(-0.00151775 0 0)
(-0.00151775 0 0)
(-0.00151775 0 0)
(-0.00151775 0 0)
(-0.00151775 0 0)
(-0.00151775 0 0)
(-0.00151775 0 0)
(-0.00151775 0 0)
(-0.00151775 0 0)
(-0.00151775 0 0)
(-0.00151775 0 0)
(-0.00151775 0 0)
(-0.00151775 0 0)
(-0.00151775 0 0)
(-0.00151775 0 0)
(-0.00151775 0 0)
(-0.00151775 0 0)
(-0.00151775 0 0)
(-0.00151775 0 0)
(-0.00151775 0 0)
(-0.00151775 0 0)
(-0.00151775 0 0)
(-0.00151775 0 0)
(-0.00151775 0 0)
(-0.00151775 0 0)
(-0.00151775 0 0)
(-0.00151775 0 0)
(-0.00151775 0 0)
(-0.00151775 0 0)
(-0.00151775 0 0)
(-0.00151775 0 0)
(-0.00151775 0 0)
(-0.00151775 0 0)
(-0.00151775 0 0)
(-0.00151775 0 0)
(-0.00151775 0 0)
(-0.00151775 0 0)
(-0.00151775 0 0)
(-0.00151775 0 0)
(-0.00151775 0 0)
(-0.00151775 0 0)
(-0.00151775 0 0)
(-0.00151775 0 0)
(-0.00151775 0 0)
(-0.00151775 0 0)
(-0.00151775 0 0)
(-0.00151775 0 0)
(-0.00151775 0 0)
(-0.00151775 0 0)
(-0.00151775 0 0)
(-0.00151775 0 0)
(-0.00151775 0 0)
(-0.00151775 0 0)
(-0.00151775 0 0)
(-0.00151775 0 0)
(-0.00151775 0 0)
(-0.00151775 0 0)
(-0.00151775 0 0)
(-0.00151775 0 0)
(-0.00151775 0 0)
(-0.00151775 0 0)
(-0.00151775 0 0)
(-0.00151775 0 0)
(-0.00151775 0 0)
(-0.00151775 0 0)
(-0.00151775 0 0)
(-0.00151775 0 0)
(-0.00151775 0 0)
(-0.00151775 0 0)
(-0.00151775 0 0)
(-0.00151775 0 0)
(-0.00151775 0 0)
(-0.00151775 0 0)
(-0.00151775 0 0)
(-0.00151775 0 0)
(-0.00151775 0 0)
(-0.00151775 0 0)
(-0.00151775 0 0)
(-0.00151775 0 0)
(-0.00151775 0 0)
(-0.00151775 0 0)
(-0.00151775 0 0)
(-0.00151775 0 0)
(-0.00151775 0 0)
(-0.00151775 0 0)
(-0.00151775 0 0)
(-0.00151775 0 0)
(-0.00151775 0 0)
(-0.00151775 0 0)
(-0.00151775 0 0)
(-0.00151775 0 0)
(-0.00151775 0 0)
(-0.00151775 0 0)
(-0.00151775 0 0)
(-0.00151775 0 0)
(-0.00151775 0 0)
(-0.00151775 0 0)
(-0.00151775 0 0)
(-0.00151775 0 0)
(-0.00151775 0 0)
(-0.00151775 0 0)
(-0.00151775 0 0)
(-0.00151775 0 0)
(-0.00151775 0 0)
(-0.00151775 0 0)
(-0.00151775 0 0)
(-0.00151775 0 0)
(-0.00151775 0 0)
(-0.00151775 0 0)
(-0.00151775 0 0)
(-0.00151775 0 0)
(-0.00151775 0 0)
(-0.00151775 0 0)
(-0.00151775 0 0)
(-0.00151775 0 0)
(-0.00151775 0 0)
(-0.00151775 0 0)
(-0.00151775 0 0)
(-0.00151775 0 0)
(-0.00151775 0 0)
(-0.00151775 0 0)
(-0.00151775 0 0)
(-0.00151775 0 0)
(-0.00151775 0 0)
(-0.00151775 0 0)
(-0.00151775 0 0)
(-0.00151775 0 0)
(-0.00151775 0 0)
(-0.00151775 0 0)
(-0.00151775 0 0)
(-0.00151775 0 0)
(-0.00151775 0 0)
(-0.00151775 0 0)
(-0.00151775 0 0)
(-0.00151775 0 0)
(-0.00151775 0 0)
(-0.00151775 0 0)
(-0.00151775 0 0)
(-0.00151775 0 0)
(-0.00151775 0 0)
(-0.00151775 0 0)
(-0.00151775 0 0)
(-0.00151775 0 0)
(-0.00151775 0 0)
(-0.00151775 0 0)
(-0.00151775 0 0)
(-0.00151775 0 0)
(-0.00151775 0 0)
(-0.00151775 0 0)
(-0.00151775 0 0)
(-0.00151775 0 0)
(-0.00151775 0 0)
(-0.00151775 0 0)
(-0.00151775 0 0)
(-0.00151775 0 0)
(-0.00151775 0 0)
(-0.00151775 0 0)
(-0.00151775 0 0)
(-0.00151775 0 0)
(-0.00151775 0 0)
(-0.00151775 0 0)
(-0.00151775 0 0)
(-0.00151775 0 0)
(-0.00151775 0 0)
(-0.00151775 0 0)
(-0.00151775 0 0)
(-0.00151775 0 0)
(-0.00151775 0 0)
(-0.00151775 0 0)
(-0.00151775 0 0)
(-0.00151775 0 0)
(-0.00151775 0 0)
(-0.00151775 0 0)
(-0.00151775 0 0)
(-0.00151775 0 0)
(-0.00151775 0 0)
(-0.00151775 0 0)
(-0.00151775 0 0)
(-0.00151775 0 0)
(-0.00151775 0 0)
(-0.00151775 0 0)
(-0.00151775 0 0)
(-0.00151775 0 0)
(-0.00151775 0 0)
(-0.00151774 0 0)
(-0.00151775 0 0)
(-0.00151774 0 0)
(-0.00151775 0 0)
(-0.00151775 0 0)
(-0.00151774 0 0)
(-0.00151775 0 0)
(-0.00151774 0 0)
(-0.00151775 0 0)
(-0.00151774 0 0)
(-0.00151775 0 0)
(-0.00151774 0 0)
(-0.00151774 0 0)
(-0.00151774 0 0)
(-0.00151774 0 0)
(-0.00151774 0 0)
(-0.00151774 0 0)
(-0.00151774 0 0)
(-0.00151774 0 0)
(-0.00151774 0 0)
(-0.00151774 0 0)
(-0.00151774 0 0)
(-0.00151774 0 0)
(-0.00151774 0 0)
(-0.00151774 0 0)
(-0.00151774 0 0)
(-0.00151774 0 0)
(-0.00151774 0 0)
(-0.00151774 0 0)
(-0.00151774 0 0)
(-0.00151774 0 0)
(-0.00151774 0 0)
(-0.00151774 0 0)
(-0.00151774 0 0)
(-0.00151774 0 0)
(-0.00151774 0 0)
(-0.00151774 0 0)
(-0.00151774 0 0)
(-0.00151775 0 0)
(-0.00151774 0 0)
(-0.00151775 0 0)
(-0.00151775 0 0)
(-0.00151775 0 0)
(-0.00151775 0 0)
(-0.00151775 0 0)
(-0.00151775 0 0)
(-0.00151775 0 0)
(-0.00151775 0 0)
(-0.00151775 0 0)
(-0.00151775 0 0)
(-0.00151775 0 0)
(-0.00151776 0 0)
(-0.00151776 0 0)
(-0.00151776 0 0)
(-0.00151776 0 0)
(-0.00151776 0 0)
(-0.00151776 0 0)
(-0.00151777 0 0)
(-0.00151777 0 0)
(-0.00151777 0 0)
(-0.00151778 0 0)
(-0.00151778 0 0)
(-0.00151778 0 0)
(-0.00151778 0 0)
(-0.00151779 0 0)
(-0.00151779 0 0)
(-0.0015178 0 0)
(-0.0015178 0 0)
(-0.00151781 0 0)
(-0.00151781 0 0)
(-0.00151782 0 0)
(-0.00151782 0 0)
(-0.00151783 0 0)
(-0.00151784 0 0)
(-0.00151785 0 0)
(-0.00151785 0 0)
(-0.00151786 0 0)
(-0.00151787 0 0)
(-0.00151788 0 0)
(-0.00151789 0 0)
(-0.0015179 0 0)
(-0.00151792 0 0)
(-0.00151793 0 0)
(-0.00151794 0 0)
(-0.00151796 0 0)
(-0.00151797 0 0)
(-0.00151799 0 0)
(-0.00151801 0 0)
(-0.00151803 0 0)
(-0.00151805 0 0)
(-0.00151807 0 0)
(-0.00151809 0 0)
(-0.00151812 0 0)
(-0.00151814 0 0)
(-0.00151817 0 0)
(-0.0015182 0 0)
(-0.00151823 0 0)
(-0.00151827 0 0)
(-0.0015183 0 0)
(-0.00151834 0 0)
(-0.00151838 0 0)
(-0.00151842 0 0)
(-0.00151847 0 0)
(-0.00151852 0 0)
(-0.00151857 0 0)
(-0.00151863 0 0)
(-0.00151868 0 0)
(-0.00151875 0 0)
(-0.00151881 0 0)
(-0.00151888 0 0)
(-0.00151896 0 0)
(-0.00151903 0 0)
(-0.00151912 0 0)
(-0.00151921 0 0)
(-0.0015193 0 0)
(-0.0015194 0 0)
(-0.0015195 0 0)
(-0.00151961 0 0)
(-0.00151973 0 0)
(-0.00151985 0 0)
(-0.00151998 0 0)
(-0.00152012 0 0)
(-0.00152027 0 0)
(-0.00152042 0 0)
(-0.00152059 0 0)
(-0.00152076 0 0)
(-0.00152094 0 0)
(-0.00152113 0 0)
(-0.00152134 0 0)
(-0.00152155 0 0)
(-0.00152177 0 0)
(-0.00152201 0 0)
(-0.00152226 0 0)
(-0.00152253 0 0)
(-0.0015228 0 0)
(-0.0015231 0 0)
(-0.00152341 0 0)
(-0.00152373 0 0)
(-0.00152407 0 0)
(-0.00152443 0 0)
(-0.00152481 0 0)
(-0.0015252 0 0)
(-0.00152562 0 0)
(-0.00152606 0 0)
(-0.00152652 0 0)
(-0.001527 0 0)
(-0.0015275 0 0)
(-0.00152804 0 0)
(-0.00152859 0 0)
(-0.00152918 0 0)
(-0.00152979 0 0)
(-0.00153043 0 0)
(-0.0015311 0 0)
(-0.0015318 0 0)
(-0.00153254 0 0)
(-0.00153331 0 0)
(-0.00153412 0 0)
(-0.00153496 0 0)
(-0.00153584 0 0)
(-0.00153676 0 0)
(-0.00153773 0 0)
(-0.00153873 0 0)
(-0.00153978 0 0)
(-0.00154088 0 0)
(-0.00154202 0 0)
(-0.00154322 0 0)
(-0.00154446 0 0)
(-0.00154576 0 0)
(-0.00154711 0 0)
(-0.00154852 0 0)
(-0.00154999 0 0)
(-0.00155151 0 0)
(-0.00155311 0 0)
(-0.00155476 0 0)
(-0.00155648 0 0)
(-0.00155827 0 0)
(-0.00156013 0 0)
(-0.00156207 0 0)
(-0.00156407 0 0)
(-0.00156616 0 0)
(-0.00156833 0 0)
(-0.00157057 0 0)
(-0.00157291 0 0)
(-0.00157533 0 0)
(-0.00157783 0 0)
(-0.00158043 0 0)
(-0.00158313 0 0)
(-0.00158591 0 0)
(-0.0015888 0 0)
(-0.00159179 0 0)
(-0.00159489 0 0)
(-0.00159809 0 0)
(-0.0016014 0 0)
(-0.00160482 0 0)
(-0.00160835 0 0)
(-0.001612 0 0)
(-0.00161578 0 0)
(-0.00161967 0 0)
(-0.00162369 0 0)
(-0.00162783 0 0)
(-0.00163211 0 0)
(-0.00163652 0 0)
(-0.00164106 0 0)
(-0.00164574 0 0)
(-0.00165056 0 0)
(-0.00165552 0 0)
(-0.00166063 0 0)
(-0.00166588 0 0)
(-0.00167129 0 0)
(-0.00167684 0 0)
(-0.00168255 0 0)
(-0.00168842 0 0)
(-0.00169445 0 0)
(-0.00170063 0 0)
(-0.00170698 0 0)
(-0.0017135 0 0)
(-0.00172018 0 0)
(-0.00172703 0 0)
(-0.00173405 0 0)
(-0.00174125 0 0)
(-0.00174861 0 0)
(-0.00175616 0 0)
(-0.00176388 0 0)
(-0.00177177 0 0)
(-0.00177985 0 0)
(-0.00178811 0 0)
(-0.00179654 0 0)
(-0.00180516 0 0)
(-0.00181396 0 0)
(-0.00182295 0 0)
(-0.00183211 0 0)
(-0.00184146 0 0)
(-0.001851 0 0)
(-0.00186071 0 0)
(-0.00187061 0 0)
(-0.00188069 0 0)
(-0.00189095 0 0)
(-0.00190138 0 0)
(-0.001912 0 0)
(-0.0019228 0 0)
(-0.00193377 0 0)
(-0.00194491 0 0)
(-0.00195623 0 0)
(-0.00196771 0 0)
(-0.00197936 0 0)
(-0.00199117 0 0)
(-0.00200315 0 0)
(-0.00201528 0 0)
(-0.00202756 0 0)
(-0.00203999 0 0)
(-0.00205257 0 0)
(-0.00206528 0 0)
(-0.00207814 0 0)
(-0.00209111 0 0)
(-0.00210422 0 0)
(-0.00211744 0 0)
(-0.00213077 0 0)
(-0.00214421 0 0)
(-0.00215775 0 0)
(-0.00217138 0 0)
(-0.00218508 0 0)
(-0.00219887 0 0)
(-0.00221271 0 0)
(-0.00222662 0 0)
(-0.00224057 0 0)
(-0.00225456 0 0)
(-0.00226858 0 0)
(-0.00228261 0 0)
(-0.00229665 0 0)
(-0.00231068 0 0)
(-0.00232469 0 0)
(-0.00233867 0 0)
(-0.0023526 0 0)
(-0.00236648 0 0)
(-0.00238028 0 0)
(-0.00239399 0 0)
(-0.00240761 0 0)
(-0.0024211 0 0)
(-0.00243446 0 0)
(-0.00244766 0 0)
(-0.0024607 0 0)
(-0.00247354 0 0)
(-0.00248618 0 0)
(-0.00249859 0 0)
(-0.00251076 0 0)
(-0.00252265 0 0)
(-0.00253425 0 0)
(-0.00254554 0 0)
(-0.0025565 0 0)
(-0.0025671 0 0)
(-0.00257731 0 0)
(-0.00258711 0 0)
(-0.00259649 0 0)
(-0.0026054 0 0)
(-0.00261383 0 0)
(-0.00262174 0 0)
(-0.00262915 0 0)
(-0.00263603 0 0)
(-0.00264224 0 0)
(-0.00264763 0 0)
(-0.0026522 0 0)
(-0.002656 0 0)
(-0.00265905 0 0)
(-0.00266133 0 0)
(-0.00266276 0 0)
(-0.00266331 0 0)
(-0.00266292 0 0)
(-0.00266152 0 0)
(-0.00265909 0 0)
(-0.00265554 0 0)
(-0.00265083 0 0)
(-0.0026449 0 0)
(-0.00263768 0 0)
(-0.00262912 0 0)
(-0.00261915 0 0)
(-0.00260769 0 0)
(-0.00259469 0 0)
(-0.00258007 0 0)
(-0.00256376 0 0)
(-0.00254567 0 0)
(-0.00252575 0 0)
(-0.0025039 0 0)
(-0.00248005 0 0)
(-0.00245413 0 0)
(-0.00242604 0 0)
(-0.00239573 0 0)
(-0.0023631 0 0)
(-0.00232809 0 0)
(-0.00229063 0 0)
(-0.00225067 0 0)
(-0.00220813 0 0)
(-0.00216298 0 0)
(-0.00211519 0 0)
(-0.00206472 0 0)
(-0.00201155 0 0)
(-0.0019558 0 0)
(-0.0018977 0 0)
(-0.00183729 0 0)
(-0.00177237 0 0)
(-0.00169805 0 0)
(-0.00162535 0 0)
)
;

boundaryField
{
    fixedWall
    {
        type            fixedValue;
        value           uniform (0 0 0);
    }
    outlet
    {
        type            pressureInletOutletVelocity;
        value           uniform (-0.00162535 0 0);
    }
    defaultFaces
    {
        type            empty;
    }
}


// ************************************************************************* //
