/*--------------------------------*- C++ -*----------------------------------*\
| =========                 |                                                 |
| \\      /  F ield         | OpenFOAM: The Open Source CFD Toolbox           |
|  \\    /   O peration     | Version:  2406                                  |
|   \\  /    A nd           | Website:  www.openfoam.com                      |
|    \\/     M anipulation  |                                                 |
\*---------------------------------------------------------------------------*/
FoamFile
{
    version     2.0;
    format      ascii;
    arch        "LSB;label=32;scalar=64";
    class       volScalarField;
    location    "2";
    object      CO2;
}
// * * * * * * * * * * * * * * * * * * * * * * * * * * * * * * * * * * * * * //

dimensions      [0 0 0 0 0 0 0];

internalField   nonuniform List<scalar> 
1000
(
0.0709257
0.0709257
0.0709257
0.0709257
0.0709257
0.0709257
0.0709257
0.0709257
0.0709257
0.0709257
0.0709257
0.0709257
0.0709257
0.0709257
0.0709257
0.0709258
0.0709258
0.0709258
0.0709258
0.0709258
0.0709258
0.0709258
0.0709259
0.0709259
0.0709259
0.0709259
0.0709259
0.0709259
0.0709259
0.070926
0.070926
0.070926
0.070926
0.070926
0.070926
0.070926
0.070926
0.070926
0.070926
0.070926
0.070926
0.070926
0.0709261
0.0709261
0.0709261
0.0709261
0.0709261
0.0709261
0.0709261
0.0709261
0.0709261
0.0709261
0.0709261
0.0709261
0.0709261
0.0709261
0.070926
0.070926
0.070926
0.070926
0.070926
0.070926
0.070926
0.070926
0.070926
0.070926
0.070926
0.070926
0.070926
0.070926
0.070926
0.070926
0.070926
0.070926
0.070926
0.070926
0.070926
0.070926
0.070926
0.070926
0.070926
0.070926
0.0709259
0.0709259
0.0709259
0.0709259
0.0709259
0.0709259
0.0709259
0.0709259
0.0709259
0.0709259
0.0709259
0.0709259
0.0709259
0.0709259
0.0709259
0.0709259
0.0709259
0.0709259
0.0709259
0.0709259
0.0709259
0.0709258
0.0709258
0.0709258
0.0709258
0.0709258
0.0709258
0.0709258
0.0709258
0.0709258
0.0709258
0.0709258
0.0709258
0.0709258
0.0709258
0.0709258
0.0709258
0.0709258
0.0709257
0.0709257
0.0709257
0.0709257
0.0709257
0.0709257
0.0709257
0.0709257
0.0709257
0.0709257
0.0709257
0.0709257
0.0709257
0.0709257
0.0709257
0.0709256
0.0709256
0.0709256
0.0709256
0.0709256
0.0709256
0.0709256
0.0709256
0.0709256
0.0709256
0.0709256
0.0709256
0.0709256
0.0709255
0.0709255
0.0709255
0.0709255
0.0709255
0.0709255
0.0709255
0.0709255
0.0709255
0.0709255
0.0709255
0.0709254
0.0709254
0.0709254
0.0709254
0.0709254
0.0709254
0.0709254
0.0709254
0.0709254
0.0709254
0.0709253
0.0709253
0.0709253
0.0709253
0.0709253
0.0709253
0.0709253
0.0709253
0.0709252
0.0709252
0.0709252
0.0709252
0.0709252
0.0709252
0.0709252
0.0709251
0.0709251
0.0709251
0.0709251
0.0709251
0.0709251
0.0709251
0.070925
0.070925
0.070925
0.070925
0.070925
0.070925
0.0709249
0.0709249
0.0709249
0.0709249
0.0709249
0.0709248
0.0709248
0.0709248
0.0709248
0.0709248
0.0709247
0.0709247
0.0709247
0.0709247
0.0709246
0.0709246
0.0709246
0.0709246
0.0709245
0.0709245
0.0709245
0.0709245
0.0709244
0.0709244
0.0709244
0.0709243
0.0709243
0.0709243
0.0709242
0.0709242
0.0709242
0.0709241
0.0709241
0.0709241
0.070924
0.070924
0.0709239
0.0709239
0.0709239
0.0709238
0.0709238
0.0709237
0.0709237
0.0709236
0.0709236
0.0709235
0.0709235
0.0709234
0.0709234
0.0709233
0.0709232
0.0709232
0.0709231
0.070923
0.070923
0.0709229
0.0709228
0.0709227
0.0709226
0.0709226
0.0709225
0.0709224
0.0709223
0.0709222
0.0709221
0.0709219
0.0709218
0.0709217
0.0709216
0.0709214
0.0709213
0.0709211
0.070921
0.0709208
0.0709206
0.0709204
0.0709202
0.07092
0.0709198
0.0709195
0.0709193
0.070919
0.0709187
0.0709184
0.070918
0.0709176
0.0709172
0.0709168
0.0709163
0.0709158
0.0709152
0.0709145
0.0709138
0.070913
0.0709121
0.0709111
0.0709099
0.0709085
0.070907
0.0709051
0.0709028
0.0709
0.0708965
0.0708921
0.0708864
0.0708787
0.0708681
0.0708525
0.0708281
0.0707869
0.0707103
0.0705483
0.0701312
0.0688338
0.0640654
0.0347191
0.0176286
0.00891604
0.00449121
0.00225509
0.00112977
0.000565122
0.000282381
0.000140999
7.03702e-05
3.51101e-05
1.75147e-05
8.73652e-06
4.35779e-06
2.17371e-06
1.08431e-06
5.40915e-07
2.69861e-07
1.34649e-07
6.7198e-08
3.35597e-08
1.67714e-08
8.40719e-09
4.2405e-09
2.13154e-09
1.11956e-09
6.45484e-10
4.45086e-10
2.6936e-10
1.75911e-10
1.31492e-10
1.0905e-10
9.67059e-11
8.98896e-11
8.59382e-11
8.35991e-11
8.27514e-11
8.18124e-11
8.14493e-11
8.12544e-11
8.10921e-11
8.099e-11
8.09387e-11
8.09143e-11
8.09006e-11
8.08874e-11
8.08834e-11
8.08791e-11
8.08775e-11
8.08763e-11
8.08758e-11
8.08756e-11
8.08755e-11
8.08755e-11
8.08755e-11
8.08756e-11
8.08757e-11
8.08758e-11
8.08759e-11
8.08761e-11
8.08762e-11
8.08763e-11
8.08764e-11
8.08766e-11
8.08767e-11
8.08768e-11
8.08769e-11
8.08771e-11
8.08772e-11
8.08773e-11
8.08774e-11
8.08775e-11
8.08777e-11
8.08778e-11
8.08779e-11
8.0878e-11
8.08782e-11
8.08783e-11
8.08785e-11
8.08785e-11
8.08787e-11
8.08788e-11
8.0879e-11
8.08791e-11
8.08792e-11
8.08793e-11
8.08794e-11
8.08796e-11
8.08797e-11
8.08798e-11
8.08799e-11
8.088e-11
8.08802e-11
8.08803e-11
8.08804e-11
8.08806e-11
8.08807e-11
8.08808e-11
8.08809e-11
8.0881e-11
8.08812e-11
8.08813e-11
8.08814e-11
8.08815e-11
8.08816e-11
8.08818e-11
8.08819e-11
8.0882e-11
8.08822e-11
8.08823e-11
8.08824e-11
8.08825e-11
8.08827e-11
8.08827e-11
8.08829e-11
8.0883e-11
8.08832e-11
8.08833e-11
8.08834e-11
8.08835e-11
8.08837e-11
8.08838e-11
8.08838e-11
8.0884e-11
8.08841e-11
8.08843e-11
8.08844e-11
8.08845e-11
8.08846e-11
8.08847e-11
8.08849e-11
8.0885e-11
8.08851e-11
8.08852e-11
8.08853e-11
8.08855e-11
8.08856e-11
8.08857e-11
8.08858e-11
8.0886e-11
8.08861e-11
8.08862e-11
8.08864e-11
8.08865e-11
8.08866e-11
8.08868e-11
8.08869e-11
8.0887e-11
8.08871e-11
8.08872e-11
8.08874e-11
8.08875e-11
8.08876e-11
8.08877e-11
8.08879e-11
8.0888e-11
8.08881e-11
8.08882e-11
8.08883e-11
8.08884e-11
8.08885e-11
8.08887e-11
8.08889e-11
8.0889e-11
8.08891e-11
8.08892e-11
8.08893e-11
8.08894e-11
8.08896e-11
8.08897e-11
8.08898e-11
8.08899e-11
8.08901e-11
8.08902e-11
8.08903e-11
8.08905e-11
8.08906e-11
8.08907e-11
8.08908e-11
8.0891e-11
8.08911e-11
8.08912e-11
8.08913e-11
8.08915e-11
8.08916e-11
8.08917e-11
8.08919e-11
8.0892e-11
8.08921e-11
8.08922e-11
8.08923e-11
8.08925e-11
8.08926e-11
8.08927e-11
8.08929e-11
8.08929e-11
8.08931e-11
8.08932e-11
8.08934e-11
8.08935e-11
8.08936e-11
8.08938e-11
8.08939e-11
8.08941e-11
8.08941e-11
8.08943e-11
8.08944e-11
8.08945e-11
8.08947e-11
8.08948e-11
8.08949e-11
8.08951e-11
8.08952e-11
8.08953e-11
8.08955e-11
8.08956e-11
8.08957e-11
8.08959e-11
8.0896e-11
8.08961e-11
8.08962e-11
8.08964e-11
8.08965e-11
8.08966e-11
8.08968e-11
8.08969e-11
8.0897e-11
8.08972e-11
8.08973e-11
8.08974e-11
8.08976e-11
8.08977e-11
8.08978e-11
8.0898e-11
8.08981e-11
8.08982e-11
8.08984e-11
8.08985e-11
8.08986e-11
8.08987e-11
8.08989e-11
8.0899e-11
8.08991e-11
8.08993e-11
8.08994e-11
8.08995e-11
8.08997e-11
8.08997e-11
8.08999e-11
8.09e-11
8.09002e-11
8.09003e-11
8.09004e-11
8.09006e-11
8.09008e-11
8.09009e-11
8.0901e-11
8.09012e-11
8.09013e-11
8.09015e-11
8.09016e-11
8.09017e-11
8.09019e-11
8.0902e-11
8.09021e-11
8.09023e-11
8.09024e-11
8.09025e-11
8.09027e-11
8.09028e-11
8.09029e-11
8.09031e-11
8.09032e-11
8.09033e-11
8.09035e-11
8.09036e-11
8.09038e-11
8.09039e-11
8.0904e-11
8.09042e-11
8.09043e-11
8.09045e-11
8.09046e-11
8.09047e-11
8.09048e-11
8.0905e-11
8.09051e-11
8.09053e-11
8.09053e-11
8.09055e-11
8.09057e-11
8.09058e-11
8.0906e-11
8.0906e-11
8.09062e-11
8.09064e-11
8.09065e-11
8.09066e-11
8.09068e-11
8.09069e-11
8.09071e-11
8.09073e-11
8.09074e-11
8.09075e-11
8.09077e-11
8.09078e-11
8.09079e-11
8.09081e-11
8.09082e-11
8.09083e-11
8.09085e-11
8.09086e-11
8.09087e-11
8.09089e-11
8.0909e-11
8.09092e-11
8.09093e-11
8.09095e-11
8.09096e-11
8.09097e-11
8.09099e-11
8.091e-11
8.09101e-11
8.09103e-11
8.09104e-11
8.09106e-11
8.09107e-11
8.09109e-11
8.0911e-11
8.09111e-11
8.09113e-11
8.09114e-11
8.09116e-11
8.09117e-11
8.09118e-11
8.0912e-11
8.09121e-11
8.09123e-11
8.09124e-11
8.09126e-11
8.09127e-11
8.09128e-11
8.0913e-11
8.09131e-11
8.09133e-11
8.09134e-11
8.09136e-11
8.09137e-11
8.09139e-11
8.0914e-11
8.09141e-11
8.09143e-11
8.09144e-11
8.09146e-11
8.09147e-11
8.09149e-11
8.0915e-11
8.09152e-11
8.09153e-11
8.09154e-11
8.09155e-11
8.09157e-11
8.09158e-11
8.0916e-11
8.09161e-11
8.09163e-11
8.09164e-11
8.09166e-11
8.09167e-11
8.09168e-11
8.0917e-11
8.09172e-11
8.09173e-11
8.09174e-11
8.09176e-11
8.09177e-11
8.09179e-11
8.09181e-11
8.09182e-11
8.09184e-11
8.09185e-11
8.09186e-11
8.09188e-11
8.09189e-11
8.09191e-11
8.09192e-11
8.09193e-11
8.09195e-11
8.09196e-11
8.09198e-11
8.09199e-11
8.092e-11
8.09202e-11
8.09203e-11
8.09204e-11
8.09207e-11
8.09208e-11
8.09209e-11
8.09211e-11
8.09213e-11
8.09214e-11
8.09215e-11
8.09217e-11
8.09218e-11
8.0922e-11
8.09221e-11
8.09222e-11
8.09224e-11
8.09225e-11
8.09227e-11
8.09229e-11
8.0923e-11
8.09231e-11
8.09233e-11
8.09234e-11
8.09235e-11
8.09237e-11
8.09238e-11
8.0924e-11
8.09241e-11
8.09243e-11
8.09244e-11
8.09246e-11
8.09247e-11
8.09248e-11
8.09251e-11
8.09252e-11
8.09253e-11
8.09255e-11
8.09256e-11
8.09257e-11
8.09259e-11
8.0926e-11
8.09262e-11
8.09264e-11
8.09265e-11
8.09267e-11
8.09268e-11
8.09269e-11
8.09271e-11
8.09272e-11
8.09274e-11
8.09275e-11
8.09277e-11
8.09278e-11
8.0928e-11
8.09281e-11
8.09282e-11
8.09284e-11
8.09285e-11
8.09287e-11
8.09289e-11
8.0929e-11
8.09291e-11
8.09293e-11
8.09294e-11
8.09295e-11
8.09298e-11
8.093e-11
8.09301e-11
8.09303e-11
8.09304e-11
8.09306e-11
8.09307e-11
8.09308e-11
8.0931e-11
8.09311e-11
8.09313e-11
8.09314e-11
8.09315e-11
8.09317e-11
8.09319e-11
8.0932e-11
8.09321e-11
8.09323e-11
8.09324e-11
8.09326e-11
8.09327e-11
8.09328e-11
8.0933e-11
8.09332e-11
8.09333e-11
8.09336e-11
8.09337e-11
8.09339e-11
8.0934e-11
8.09342e-11
8.09343e-11
8.09344e-11
8.09346e-11
8.09347e-11
8.09348e-11
8.09351e-11
8.09352e-11
8.09353e-11
8.09354e-11
8.09356e-11
8.09358e-11
8.09359e-11
8.0936e-11
8.09362e-11
8.09363e-11
8.09365e-11
8.09366e-11
8.09368e-11
8.09369e-11
8.0937e-11
8.09372e-11
8.09373e-11
8.09375e-11
8.09377e-11
8.09378e-11
8.0938e-11
8.09381e-11
8.09383e-11
8.09385e-11
8.09386e-11
8.09388e-11
8.0939e-11
8.09391e-11
8.09393e-11
8.09394e-11
8.09395e-11
8.09397e-11
8.09398e-11
8.094e-11
8.09402e-11
8.09404e-11
8.09405e-11
8.09407e-11
8.09408e-11
8.0941e-11
8.09412e-11
8.09413e-11
8.09415e-11
8.09416e-11
8.09417e-11
8.09419e-11
8.0942e-11
8.09422e-11
8.09424e-11
8.09425e-11
8.09427e-11
8.09428e-11
8.09429e-11
8.09431e-11
8.09433e-11
8.09434e-11
8.09435e-11
8.09437e-11
8.09438e-11
8.0944e-11
8.09441e-11
8.09442e-11
8.09445e-11
8.09446e-11
8.09447e-11
8.09449e-11
8.09451e-11
8.09453e-11
8.09454e-11
8.09456e-11
8.09458e-11
8.09459e-11
8.0946e-11
8.09462e-11
8.09464e-11
8.09465e-11
8.09466e-11
8.09468e-11
8.0947e-11
8.09471e-11
8.09472e-11
8.09475e-11
8.09476e-11
8.09478e-11
8.09479e-11
8.09481e-11
8.09482e-11
8.09484e-11
8.09485e-11
8.09487e-11
8.09489e-11
8.0949e-11
8.09492e-11
8.09493e-11
8.09495e-11
8.09496e-11
8.09498e-11
8.09499e-11
8.09502e-11
8.09503e-11
8.09504e-11
8.09506e-11
8.09507e-11
8.09509e-11
8.09511e-11
8.09512e-11
8.09513e-11
8.09515e-11
8.09517e-11
8.09519e-11
8.0952e-11
8.09521e-11
8.09522e-11
8.09525e-11
8.09526e-11
8.09528e-11
8.09529e-11
8.09531e-11
8.09533e-11
8.09535e-11
8.09536e-11
8.09538e-11
8.09539e-11
8.09541e-11
8.09542e-11
8.09544e-11
8.09546e-11
8.09547e-11
8.09549e-11
8.0955e-11
8.09551e-11
8.09553e-11
8.09556e-11
8.09557e-11
8.09558e-11
8.0956e-11
8.09561e-11
8.09563e-11
8.09565e-11
8.09566e-11
8.09568e-11
8.0957e-11
8.09571e-11
8.09573e-11
8.09575e-11
8.09576e-11
8.09577e-11
8.0958e-11
8.09581e-11
8.09583e-11
8.09584e-11
8.09586e-11
8.09588e-11
8.09589e-11
8.09591e-11
8.09592e-11
8.09594e-11
8.09596e-11
8.09597e-11
8.09599e-11
8.09601e-11
8.09602e-11
8.09604e-11
8.09605e-11
8.09607e-11
8.09608e-11
8.0961e-11
8.09612e-11
8.09613e-11
8.09615e-11
8.09616e-11
8.09619e-11
8.0962e-11
8.09622e-11
8.09624e-11
8.09625e-11
8.09627e-11
8.09629e-11
8.0963e-11
8.09631e-11
8.09633e-11
8.09635e-11
8.09637e-11
8.09638e-11
8.0964e-11
8.09641e-11
8.09643e-11
8.09645e-11
8.09647e-11
8.09648e-11
8.0965e-11
8.09652e-11
8.09653e-11
8.09655e-11
8.09656e-11
8.09658e-11
)
;

boundaryField
{
    fixedWall
    {
        type            zeroGradient;
    }
    outlet
    {
        type            inletOutlet;
        inletValue      uniform 0;
        value           uniform 8.09658e-11;
    }
    defaultFaces
    {
        type            empty;
    }
}


// ************************************************************************* //
