/*--------------------------------*- C++ -*----------------------------------*\
| =========                 |                                                 |
| \\      /  F ield         | OpenFOAM: The Open Source CFD Toolbox           |
|  \\    /   O peration     | Version:  2406                                  |
|   \\  /    A nd           | Website:  www.openfoam.com                      |
|    \\/     M anipulation  |                                                 |
\*---------------------------------------------------------------------------*/
FoamFile
{
    version     2.0;
    format      ascii;
    arch        "LSB;label=32;scalar=64";
    class       volScalarField;
    location    "2";
    object      H2O;
}
// * * * * * * * * * * * * * * * * * * * * * * * * * * * * * * * * * * * * * //

dimensions      [0 0 0 0 0 0 0];

internalField   nonuniform List<scalar> 
1000
(
0.0580662
0.0580662
0.0580662
0.0580662
0.0580662
0.0580662
0.0580662
0.0580662
0.0580662
0.0580662
0.0580662
0.0580663
0.0580663
0.0580663
0.0580663
0.0580663
0.0580663
0.0580663
0.0580663
0.0580663
0.0580663
0.0580664
0.0580664
0.0580664
0.0580664
0.0580664
0.0580664
0.0580664
0.0580664
0.0580665
0.0580665
0.0580665
0.0580665
0.0580665
0.0580665
0.0580665
0.0580665
0.0580665
0.0580665
0.0580665
0.0580665
0.0580665
0.0580665
0.0580665
0.0580665
0.0580665
0.0580665
0.0580665
0.0580665
0.0580665
0.0580665
0.0580665
0.0580665
0.0580665
0.0580665
0.0580665
0.0580665
0.0580665
0.0580665
0.0580665
0.0580665
0.0580665
0.0580665
0.0580665
0.0580665
0.0580665
0.0580665
0.0580665
0.0580665
0.0580665
0.0580665
0.0580665
0.0580665
0.0580665
0.0580665
0.0580665
0.0580665
0.0580665
0.0580665
0.0580665
0.0580665
0.0580665
0.0580664
0.0580664
0.0580664
0.0580664
0.0580664
0.0580664
0.0580664
0.0580664
0.0580664
0.0580664
0.0580664
0.0580664
0.0580664
0.0580664
0.0580664
0.0580664
0.0580664
0.0580664
0.0580664
0.0580664
0.0580664
0.0580664
0.0580664
0.0580664
0.0580664
0.0580663
0.0580663
0.0580663
0.0580663
0.0580663
0.0580663
0.0580663
0.0580663
0.0580663
0.0580663
0.0580663
0.0580663
0.0580663
0.0580663
0.0580663
0.0580663
0.0580663
0.0580663
0.0580663
0.0580663
0.0580663
0.0580662
0.0580662
0.0580662
0.0580662
0.0580662
0.0580662
0.0580662
0.0580662
0.0580662
0.0580662
0.0580662
0.0580662
0.0580662
0.0580662
0.0580662
0.0580662
0.0580661
0.0580661
0.0580661
0.0580661
0.0580661
0.0580661
0.0580661
0.0580661
0.0580661
0.0580661
0.0580661
0.0580661
0.0580661
0.0580661
0.058066
0.058066
0.058066
0.058066
0.058066
0.058066
0.058066
0.058066
0.058066
0.058066
0.058066
0.058066
0.0580659
0.0580659
0.0580659
0.0580659
0.0580659
0.0580659
0.0580659
0.0580659
0.0580659
0.0580659
0.0580658
0.0580658
0.0580658
0.0580658
0.0580658
0.0580658
0.0580658
0.0580658
0.0580657
0.0580657
0.0580657
0.0580657
0.0580657
0.0580657
0.0580657
0.0580657
0.0580656
0.0580656
0.0580656
0.0580656
0.0580656
0.0580656
0.0580655
0.0580655
0.0580655
0.0580655
0.0580655
0.0580655
0.0580654
0.0580654
0.0580654
0.0580654
0.0580654
0.0580653
0.0580653
0.0580653
0.0580653
0.0580653
0.0580652
0.0580652
0.0580652
0.0580652
0.0580651
0.0580651
0.0580651
0.0580651
0.058065
0.058065
0.058065
0.0580649
0.0580649
0.0580649
0.0580648
0.0580648
0.0580648
0.0580647
0.0580647
0.0580647
0.0580646
0.0580646
0.0580646
0.0580645
0.0580645
0.0580644
0.0580644
0.0580643
0.0580643
0.0580642
0.0580642
0.0580641
0.0580641
0.058064
0.0580639
0.0580639
0.0580638
0.0580637
0.0580637
0.0580636
0.0580635
0.0580634
0.0580634
0.0580633
0.0580632
0.0580631
0.058063
0.0580629
0.0580628
0.0580626
0.0580625
0.0580624
0.0580622
0.0580621
0.0580619
0.0580618
0.0580616
0.0580614
0.0580612
0.058061
0.0580608
0.0580605
0.0580602
0.05806
0.0580596
0.0580593
0.0580589
0.0580586
0.0580581
0.0580576
0.0580571
0.0580565
0.0580559
0.0580551
0.0580543
0.0580533
0.0580522
0.0580509
0.0580494
0.0580475
0.0580452
0.0580423
0.0580387
0.0580341
0.0580278
0.0580191
0.0580063
0.0579863
0.0579526
0.0578899
0.0577573
0.0574158
0.0563536
0.0524498
0.0284242
0.0144323
0.00729949
0.00367692
0.00184622
0.000924929
0.00046266
0.000231183
0.000115435
5.76114e-05
2.87443e-05
1.43391e-05
7.15251e-06
3.56769e-06
1.7796e-06
8.87718e-07
4.42843e-07
2.20933e-07
1.10236e-07
5.50144e-08
2.7475e-08
1.37306e-08
6.88289e-09
3.47166e-09
1.74507e-09
9.16574e-10
5.28452e-10
3.64388e-10
2.20522e-10
1.44017e-10
1.07651e-10
8.92786e-11
7.91723e-11
7.35918e-11
7.03568e-11
6.84419e-11
6.77479e-11
6.69791e-11
6.66819e-11
6.65222e-11
6.63894e-11
6.63058e-11
6.62638e-11
6.62438e-11
6.62326e-11
6.62218e-11
6.62185e-11
6.6215e-11
6.62137e-11
6.62127e-11
6.62123e-11
6.62121e-11
6.62121e-11
6.62121e-11
6.62121e-11
6.62121e-11
6.62122e-11
6.62123e-11
6.62124e-11
6.62125e-11
6.62126e-11
6.62127e-11
6.62128e-11
6.62129e-11
6.6213e-11
6.62131e-11
6.62132e-11
6.62134e-11
6.62134e-11
6.62135e-11
6.62136e-11
6.62137e-11
6.62139e-11
6.6214e-11
6.6214e-11
6.62141e-11
6.62143e-11
6.62144e-11
6.62145e-11
6.62145e-11
6.62147e-11
6.62148e-11
6.62149e-11
6.6215e-11
6.62151e-11
6.62152e-11
6.62152e-11
6.62154e-11
6.62155e-11
6.62156e-11
6.62157e-11
6.62158e-11
6.62159e-11
6.6216e-11
6.62161e-11
6.62162e-11
6.62163e-11
6.62164e-11
6.62165e-11
6.62166e-11
6.62167e-11
6.62168e-11
6.62169e-11
6.6217e-11
6.62171e-11
6.62172e-11
6.62173e-11
6.62174e-11
6.62175e-11
6.62176e-11
6.62177e-11
6.62178e-11
6.62179e-11
6.6218e-11
6.62181e-11
6.62182e-11
6.62183e-11
6.62184e-11
6.62185e-11
6.62186e-11
6.62187e-11
6.62188e-11
6.62189e-11
6.6219e-11
6.62191e-11
6.62192e-11
6.62193e-11
6.62194e-11
6.62195e-11
6.62196e-11
6.62197e-11
6.62198e-11
6.62199e-11
6.622e-11
6.62201e-11
6.62202e-11
6.62203e-11
6.62204e-11
6.62205e-11
6.62206e-11
6.62207e-11
6.62208e-11
6.6221e-11
6.62211e-11
6.62212e-11
6.62213e-11
6.62214e-11
6.62215e-11
6.62216e-11
6.62217e-11
6.62218e-11
6.62219e-11
6.62219e-11
6.62221e-11
6.62222e-11
6.62223e-11
6.62224e-11
6.62225e-11
6.62226e-11
6.62226e-11
6.62227e-11
6.62229e-11
6.6223e-11
6.62231e-11
6.62232e-11
6.62233e-11
6.62234e-11
6.62235e-11
6.62236e-11
6.62237e-11
6.62238e-11
6.62239e-11
6.6224e-11
6.62241e-11
6.62242e-11
6.62243e-11
6.62244e-11
6.62245e-11
6.62246e-11
6.62247e-11
6.62248e-11
6.62249e-11
6.6225e-11
6.62252e-11
6.62253e-11
6.62253e-11
6.62255e-11
6.62255e-11
6.62257e-11
6.62258e-11
6.62258e-11
6.6226e-11
6.62261e-11
6.62262e-11
6.62263e-11
6.62263e-11
6.62265e-11
6.62266e-11
6.62267e-11
6.62268e-11
6.62269e-11
6.62271e-11
6.62272e-11
6.62272e-11
6.62273e-11
6.62275e-11
6.62275e-11
6.62276e-11
6.62278e-11
6.62279e-11
6.6228e-11
6.62281e-11
6.62282e-11
6.62283e-11
6.62284e-11
6.62285e-11
6.62286e-11
6.62287e-11
6.62288e-11
6.62289e-11
6.6229e-11
6.62292e-11
6.62292e-11
6.62294e-11
6.62295e-11
6.62296e-11
6.62297e-11
6.62298e-11
6.62299e-11
6.623e-11
6.62301e-11
6.62302e-11
6.62303e-11
6.62305e-11
6.62306e-11
6.62306e-11
6.62308e-11
6.62309e-11
6.6231e-11
6.62311e-11
6.62312e-11
6.62313e-11
6.62314e-11
6.62315e-11
6.62316e-11
6.62317e-11
6.62318e-11
6.62319e-11
6.62321e-11
6.62322e-11
6.62323e-11
6.62324e-11
6.62325e-11
6.62326e-11
6.62327e-11
6.62328e-11
6.62329e-11
6.62331e-11
6.62332e-11
6.62333e-11
6.62334e-11
6.62335e-11
6.62337e-11
6.62338e-11
6.62339e-11
6.6234e-11
6.62341e-11
6.62342e-11
6.62343e-11
6.62344e-11
6.62345e-11
6.62346e-11
6.62347e-11
6.62348e-11
6.62349e-11
6.62351e-11
6.62352e-11
6.62353e-11
6.62354e-11
6.62355e-11
6.62357e-11
6.62358e-11
6.62359e-11
6.6236e-11
6.62361e-11
6.62362e-11
6.62363e-11
6.62364e-11
6.62365e-11
6.62366e-11
6.62367e-11
6.62368e-11
6.6237e-11
6.62371e-11
6.62372e-11
6.62373e-11
6.62374e-11
6.62375e-11
6.62377e-11
6.62378e-11
6.62379e-11
6.62381e-11
6.62382e-11
6.62383e-11
6.62384e-11
6.62385e-11
6.62386e-11
6.62387e-11
6.62388e-11
6.62389e-11
6.6239e-11
6.62391e-11
6.62393e-11
6.62394e-11
6.62395e-11
6.62396e-11
6.62397e-11
6.62399e-11
6.624e-11
6.62401e-11
6.62402e-11
6.62403e-11
6.62404e-11
6.62406e-11
6.62407e-11
6.62408e-11
6.62409e-11
6.6241e-11
6.62411e-11
6.62412e-11
6.62413e-11
6.62415e-11
6.62416e-11
6.62417e-11
6.62418e-11
6.62419e-11
6.62421e-11
6.62422e-11
6.62423e-11
6.62424e-11
6.62425e-11
6.62426e-11
6.62428e-11
6.62429e-11
6.6243e-11
6.62431e-11
6.62432e-11
6.62433e-11
6.62435e-11
6.62436e-11
6.62437e-11
6.62438e-11
6.62439e-11
6.62441e-11
6.62442e-11
6.62443e-11
6.62444e-11
6.62445e-11
6.62446e-11
6.62447e-11
6.62448e-11
6.6245e-11
6.62451e-11
6.62452e-11
6.62453e-11
6.62454e-11
6.62456e-11
6.62457e-11
6.62458e-11
6.62459e-11
6.6246e-11
6.62462e-11
6.62462e-11
6.62464e-11
6.62465e-11
6.62466e-11
6.62468e-11
6.62469e-11
6.6247e-11
6.62471e-11
6.62473e-11
6.62474e-11
6.62475e-11
6.62476e-11
6.62477e-11
6.62478e-11
6.62479e-11
6.62481e-11
6.62482e-11
6.62483e-11
6.62484e-11
6.62485e-11
6.62487e-11
6.62487e-11
6.62488e-11
6.6249e-11
6.62491e-11
6.62492e-11
6.62494e-11
6.62495e-11
6.62496e-11
6.62498e-11
6.62499e-11
6.625e-11
6.62501e-11
6.62502e-11
6.62503e-11
6.62505e-11
6.62506e-11
6.62507e-11
6.62508e-11
6.62509e-11
6.6251e-11
6.62512e-11
6.62513e-11
6.62514e-11
6.62515e-11
6.62516e-11
6.62518e-11
6.62519e-11
6.6252e-11
6.62521e-11
6.62522e-11
6.62523e-11
6.62524e-11
6.62526e-11
6.62527e-11
6.62528e-11
6.6253e-11
6.62531e-11
6.62532e-11
6.62533e-11
6.62534e-11
6.62536e-11
6.62537e-11
6.62538e-11
6.62539e-11
6.6254e-11
6.62542e-11
6.62543e-11
6.62544e-11
6.62545e-11
6.62546e-11
6.62548e-11
6.62549e-11
6.6255e-11
6.62551e-11
6.62552e-11
6.62554e-11
6.62555e-11
6.62556e-11
6.62558e-11
6.62559e-11
6.6256e-11
6.62561e-11
6.62562e-11
6.62563e-11
6.62565e-11
6.62567e-11
6.62568e-11
6.62569e-11
6.6257e-11
6.62571e-11
6.62572e-11
6.62574e-11
6.62575e-11
6.62576e-11
6.62577e-11
6.62578e-11
6.62579e-11
6.62581e-11
6.62582e-11
6.62583e-11
6.62584e-11
6.62586e-11
6.62587e-11
6.62588e-11
6.62589e-11
6.6259e-11
6.62592e-11
6.62593e-11
6.62594e-11
6.62596e-11
6.62597e-11
6.62599e-11
6.626e-11
6.62601e-11
6.62602e-11
6.62603e-11
6.62604e-11
6.62605e-11
6.62606e-11
6.62608e-11
6.62609e-11
6.6261e-11
6.62611e-11
6.62613e-11
6.62614e-11
6.62615e-11
6.62616e-11
6.62618e-11
6.62619e-11
6.6262e-11
6.62621e-11
6.62622e-11
6.62623e-11
6.62624e-11
6.62626e-11
6.62627e-11
6.62628e-11
6.6263e-11
6.62631e-11
6.62632e-11
6.62633e-11
6.62635e-11
6.62636e-11
6.62637e-11
6.62639e-11
6.6264e-11
6.62642e-11
6.62643e-11
6.62644e-11
6.62645e-11
6.62646e-11
6.62647e-11
6.62649e-11
6.6265e-11
6.62652e-11
6.62653e-11
6.62654e-11
6.62655e-11
6.62657e-11
6.62658e-11
6.62659e-11
6.62661e-11
6.62662e-11
6.62663e-11
6.62664e-11
6.62665e-11
6.62666e-11
6.62668e-11
6.62669e-11
6.62671e-11
6.62671e-11
6.62673e-11
6.62674e-11
6.62675e-11
6.62676e-11
6.62677e-11
6.62679e-11
6.6268e-11
6.62681e-11
6.62683e-11
6.62683e-11
6.62685e-11
6.62686e-11
6.62687e-11
6.62689e-11
6.62691e-11
6.62692e-11
6.62693e-11
6.62694e-11
6.62696e-11
6.62697e-11
6.62698e-11
6.627e-11
6.62701e-11
6.62702e-11
6.62703e-11
6.62704e-11
6.62706e-11
6.62707e-11
6.62708e-11
6.6271e-11
6.62711e-11
6.62712e-11
6.62713e-11
6.62715e-11
6.62716e-11
6.62717e-11
6.62718e-11
6.6272e-11
6.62722e-11
6.62723e-11
6.62724e-11
6.62725e-11
6.62726e-11
6.62727e-11
6.62729e-11
6.6273e-11
6.62732e-11
6.62733e-11
6.62734e-11
6.62735e-11
6.62736e-11
6.62738e-11
6.62739e-11
6.62741e-11
6.62742e-11
6.62743e-11
6.62744e-11
6.62746e-11
6.62747e-11
6.62748e-11
6.62749e-11
6.62751e-11
6.62752e-11
6.62754e-11
6.62755e-11
6.62756e-11
6.62757e-11
6.62759e-11
6.6276e-11
6.62761e-11
6.62763e-11
6.62764e-11
6.62765e-11
6.62767e-11
6.62768e-11
6.62769e-11
6.62771e-11
6.62772e-11
6.62773e-11
6.62774e-11
6.62776e-11
6.62777e-11
6.62778e-11
6.6278e-11
6.62781e-11
6.62782e-11
6.62783e-11
6.62785e-11
6.62786e-11
6.62788e-11
6.62788e-11
6.6279e-11
6.62792e-11
6.62793e-11
6.62794e-11
6.62796e-11
6.62797e-11
6.62798e-11
6.628e-11
6.62801e-11
6.62802e-11
6.62803e-11
6.62805e-11
6.62806e-11
6.62807e-11
6.62809e-11
6.6281e-11
6.62812e-11
6.62813e-11
6.62814e-11
6.62816e-11
6.62817e-11
6.62818e-11
6.62819e-11
6.62821e-11
6.62822e-11
6.62823e-11
6.62825e-11
6.62826e-11
6.62828e-11
6.62829e-11
6.6283e-11
6.62832e-11
6.62833e-11
6.62834e-11
6.62836e-11
6.62837e-11
6.62838e-11
6.6284e-11
6.62841e-11
6.62842e-11
6.62843e-11
6.62845e-11
6.62846e-11
6.62847e-11
6.62849e-11
6.62851e-11
6.62852e-11
6.62853e-11
6.62855e-11
6.62856e-11
6.62858e-11
6.62859e-11
6.6286e-11
)
;

boundaryField
{
    fixedWall
    {
        type            zeroGradient;
    }
    outlet
    {
        type            inletOutlet;
        inletValue      uniform 0;
        value           uniform 6.6286e-11;
    }
    defaultFaces
    {
        type            empty;
    }
}


// ************************************************************************* //
