/*--------------------------------*- C++ -*----------------------------------*\
| =========                 |                                                 |
| \\      /  F ield         | OpenFOAM: The Open Source CFD Toolbox           |
|  \\    /   O peration     | Version:  2406                                  |
|   \\  /    A nd           | Website:  www.openfoam.com                      |
|    \\/     M anipulation  |                                                 |
\*---------------------------------------------------------------------------*/
FoamFile
{
    version     2.0;
    format      ascii;
    arch        "LSB;label=32;scalar=64";
    class       volScalarField;
    location    "2";
    object      O2;
}
// * * * * * * * * * * * * * * * * * * * * * * * * * * * * * * * * * * * * * //

dimensions      [0 0 0 0 0 0 0];

internalField   nonuniform List<scalar> 
1000
(
1.72539e-06
1.72406e-06
1.72167e-06
1.71828e-06
1.71389e-06
1.70843e-06
1.70185e-06
1.69409e-06
1.6851e-06
1.67486e-06
1.66333e-06
1.65052e-06
1.63643e-06
1.6211e-06
1.60458e-06
1.58697e-06
1.56835e-06
1.54885e-06
1.52861e-06
1.50776e-06
1.48648e-06
1.46494e-06
1.44328e-06
1.42169e-06
1.40032e-06
1.37932e-06
1.35883e-06
1.33897e-06
1.31986e-06
1.30159e-06
1.28423e-06
1.26786e-06
1.25251e-06
1.23824e-06
1.22505e-06
1.21295e-06
1.20195e-06
1.19204e-06
1.18319e-06
1.17538e-06
1.16858e-06
1.16276e-06
1.15786e-06
1.15385e-06
1.15069e-06
1.14833e-06
1.14671e-06
1.14581e-06
1.14557e-06
1.14593e-06
1.14686e-06
1.14832e-06
1.15026e-06
1.15266e-06
1.15546e-06
1.15863e-06
1.16215e-06
1.16597e-06
1.17008e-06
1.17443e-06
1.17902e-06
1.18381e-06
1.18879e-06
1.19393e-06
1.19921e-06
1.20463e-06
1.21017e-06
1.21581e-06
1.22155e-06
1.22736e-06
1.23326e-06
1.23922e-06
1.24523e-06
1.25123e-06
1.25737e-06
1.26356e-06
1.2698e-06
1.27607e-06
1.28239e-06
1.28874e-06
1.29513e-06
1.30156e-06
1.30803e-06
1.31454e-06
1.32109e-06
1.32767e-06
1.33431e-06
1.34098e-06
1.3477e-06
1.35447e-06
1.36128e-06
1.36815e-06
1.37507e-06
1.38204e-06
1.38907e-06
1.39615e-06
1.4033e-06
1.4105e-06
1.41777e-06
1.4251e-06
1.43249e-06
1.43995e-06
1.44748e-06
1.45508e-06
1.46274e-06
1.47048e-06
1.47829e-06
1.48618e-06
1.49414e-06
1.50217e-06
1.51028e-06
1.51847e-06
1.52674e-06
1.53509e-06
1.54352e-06
1.55203e-06
1.56062e-06
1.5693e-06
1.57806e-06
1.58691e-06
1.59585e-06
1.60487e-06
1.61399e-06
1.6232e-06
1.6325e-06
1.64189e-06
1.65139e-06
1.66098e-06
1.67068e-06
1.68048e-06
1.69031e-06
1.7002e-06
1.71033e-06
1.72058e-06
1.73095e-06
1.74144e-06
1.75204e-06
1.76277e-06
1.77363e-06
1.78462e-06
1.79574e-06
1.80699e-06
1.81839e-06
1.82994e-06
1.84163e-06
1.85347e-06
1.86546e-06
1.87761e-06
1.88993e-06
1.90241e-06
1.91505e-06
1.92787e-06
1.94085e-06
1.95402e-06
1.96737e-06
1.9809e-06
1.99461e-06
2.00851e-06
2.0226e-06
2.03674e-06
2.05117e-06
2.06591e-06
2.08084e-06
2.09598e-06
2.11134e-06
2.12691e-06
2.1427e-06
2.15872e-06
2.17496e-06
2.19144e-06
2.20816e-06
2.22513e-06
2.24234e-06
2.2598e-06
2.27753e-06
2.29552e-06
2.31379e-06
2.33233e-06
2.35117e-06
2.37029e-06
2.38973e-06
2.40947e-06
2.42954e-06
2.44994e-06
2.47069e-06
2.49179e-06
2.51325e-06
2.53509e-06
2.55732e-06
2.57994e-06
2.60297e-06
2.62643e-06
2.65031e-06
2.67464e-06
2.69942e-06
2.72467e-06
2.7504e-06
2.77662e-06
2.80335e-06
2.83059e-06
2.85837e-06
2.8867e-06
2.91559e-06
2.94505e-06
2.9751e-06
3.00577e-06
3.03705e-06
3.06898e-06
3.10157e-06
3.13485e-06
3.16882e-06
3.20351e-06
3.23896e-06
3.27517e-06
3.31218e-06
3.35001e-06
3.3887e-06
3.42828e-06
3.46876e-06
3.5102e-06
3.55263e-06
3.59608e-06
3.64059e-06
3.6862e-06
3.73296e-06
3.78091e-06
3.83009e-06
3.88056e-06
3.93236e-06
3.98554e-06
4.04017e-06
4.0963e-06
4.154e-06
4.21332e-06
4.27433e-06
4.33712e-06
4.40175e-06
4.46831e-06
4.53688e-06
4.60756e-06
4.68043e-06
4.75561e-06
4.83318e-06
4.91328e-06
4.99601e-06
5.08149e-06
5.16986e-06
5.26125e-06
5.35581e-06
5.4537e-06
5.55507e-06
5.65896e-06
5.76637e-06
5.87915e-06
5.99619e-06
6.11774e-06
6.24409e-06
6.37558e-06
6.51255e-06
6.65539e-06
6.80455e-06
6.96048e-06
7.12372e-06
7.29481e-06
7.4739e-06
7.65996e-06
7.85806e-06
8.06697e-06
8.28764e-06
8.52107e-06
8.76831e-06
9.03057e-06
9.30913e-06
9.60541e-06
9.92095e-06
1.02575e-05
1.06168e-05
1.10012e-05
1.14128e-05
1.18545e-05
1.23292e-05
1.28405e-05
1.33927e-05
1.39904e-05
1.46329e-05
1.53306e-05
1.6103e-05
1.69521e-05
1.78907e-05
1.89342e-05
2.01022e-05
2.14187e-05
2.29145e-05
2.4629e-05
2.66136e-05
2.89112e-05
3.16717e-05
3.49961e-05
3.9061e-05
4.4116e-05
5.05241e-05
5.88412e-05
6.99684e-05
8.54536e-05
0.000108134
0.000143594
0.000203574
0.000314904
0.0005505
0.00115701
0.00304363
0.00997768
0.0526518
0.0775043
0.0901737
0.0966081
0.0998597
0.101496
0.102317
0.102728
0.102934
0.103037
0.103088
0.103114
0.103126
0.103133
0.103136
0.103137
0.103138
0.103139
0.103139
0.103139
0.103139
0.103139
0.103139
0.103139
0.103139
0.103139
0.103139
0.103139
0.103139
0.103139
0.103139
0.103139
0.103139
0.103139
0.103139
0.103139
0.103139
0.103139
0.103139
0.103139
0.103139
0.103139
0.103139
0.103139
0.103139
0.103139
0.103139
0.103139
0.103139
0.103139
0.103139
0.103139
0.103139
0.103139
0.103139
0.103139
0.103139
0.103139
0.103139
0.103139
0.103139
0.103139
0.103139
0.103139
0.103139
0.103139
0.103139
0.103139
0.103139
0.103139
0.103139
0.103139
0.103139
0.103139
0.103139
0.103139
0.103139
0.103139
0.103139
0.103139
0.103139
0.103139
0.103139
0.103139
0.103139
0.103139
0.103139
0.103139
0.103139
0.103139
0.103139
0.103139
0.103139
0.103139
0.103139
0.103139
0.103139
0.103139
0.103139
0.103139
0.103139
0.103139
0.103139
0.103139
0.103139
0.103139
0.103139
0.103139
0.103139
0.103139
0.103139
0.103139
0.103139
0.103139
0.103139
0.103139
0.103139
0.103139
0.103139
0.103139
0.103139
0.103139
0.103139
0.103139
0.103139
0.103139
0.103139
0.103139
0.103139
0.103139
0.103139
0.103139
0.103139
0.103139
0.103139
0.103139
0.103139
0.103139
0.103139
0.103139
0.103139
0.103139
0.103139
0.103139
0.103139
0.103139
0.103139
0.103139
0.103139
0.103139
0.103139
0.103139
0.103139
0.103139
0.103139
0.103139
0.103139
0.103139
0.103139
0.103139
0.103139
0.103139
0.103139
0.103139
0.103139
0.103139
0.103139
0.103139
0.103139
0.103139
0.103139
0.103139
0.103139
0.103139
0.103139
0.103139
0.103139
0.103139
0.103139
0.103139
0.103139
0.103139
0.103139
0.103139
0.103139
0.103139
0.103139
0.103139
0.103139
0.103139
0.103139
0.103139
0.103139
0.103139
0.103139
0.103139
0.103139
0.103139
0.103139
0.103139
0.103139
0.103139
0.103139
0.103139
0.103139
0.103139
0.103139
0.103139
0.103139
0.103139
0.103139
0.103139
0.103139
0.103139
0.103139
0.103139
0.103139
0.103139
0.103139
0.103139
0.103139
0.103139
0.103139
0.103139
0.103139
0.103139
0.103139
0.103139
0.103139
0.103139
0.103139
0.103139
0.103139
0.103139
0.103139
0.103139
0.103139
0.103139
0.103139
0.103139
0.103139
0.103139
0.103139
0.103139
0.103139
0.103139
0.103139
0.103139
0.103139
0.103139
0.103139
0.103139
0.103139
0.103139
0.103139
0.103139
0.103139
0.103139
0.103139
0.103139
0.103139
0.103139
0.103139
0.103139
0.103139
0.103139
0.103139
0.103139
0.103139
0.103139
0.103139
0.103139
0.103139
0.103139
0.103139
0.103139
0.103139
0.103139
0.103139
0.103139
0.103139
0.103139
0.103139
0.103139
0.103139
0.103139
0.103139
0.103139
0.103139
0.103139
0.103139
0.103139
0.103139
0.103139
0.103139
0.103139
0.103139
0.103139
0.103139
0.103139
0.103139
0.103139
0.103139
0.103139
0.103139
0.103139
0.103139
0.103139
0.103139
0.103139
0.103139
0.103139
0.103139
0.103139
0.103139
0.103139
0.103139
0.103139
0.103139
0.103139
0.103139
0.103139
0.103139
0.103139
0.103139
0.103139
0.103139
0.103139
0.103139
0.103139
0.103139
0.103139
0.103139
0.103139
0.103139
0.103139
0.103139
0.103139
0.103139
0.103139
0.103139
0.103139
0.103139
0.103139
0.103139
0.103139
0.103139
0.103139
0.103139
0.103139
0.103139
0.103139
0.103139
0.103139
0.103139
0.103139
0.103139
0.103139
0.103139
0.103139
0.103139
0.103139
0.103139
0.103139
0.103139
0.103139
0.103139
0.103139
0.103139
0.103139
0.103139
0.103139
0.103139
0.103139
0.103139
0.103139
0.103139
0.103139
0.103139
0.103139
0.103139
0.103139
0.103139
0.103139
0.103139
0.103139
0.103139
0.103139
0.103139
0.103139
0.103139
0.103139
0.103139
0.103139
0.103139
0.103139
0.103139
0.103139
0.103139
0.103139
0.103139
0.103139
0.103139
0.103139
0.103139
0.103139
0.103139
0.103139
0.103139
0.103139
0.103139
0.103139
0.103139
0.103139
0.103139
0.103139
0.103139
0.103139
0.103139
0.103139
0.103139
0.103139
0.103139
0.103139
0.103139
0.103139
0.103139
0.103139
0.103139
0.103139
0.103139
0.103139
0.103139
0.103139
0.103139
0.103139
0.103139
0.103139
0.103139
0.103139
0.103139
0.103139
0.103139
0.103139
0.103139
0.103139
0.103139
0.103139
0.103139
0.103139
0.103139
0.103139
0.103139
0.103139
0.103139
0.103139
0.103139
0.103139
0.103139
0.103139
0.103139
0.103139
0.103139
0.103139
0.103139
0.103139
0.103139
0.103139
0.103139
0.103139
0.103139
0.103139
0.103139
0.103139
0.103139
0.103139
0.103139
0.103139
0.103139
0.103139
0.103139
0.103139
0.103139
0.103139
0.103139
0.103139
0.103139
0.103139
0.103139
0.103139
0.103139
0.103139
0.103139
0.103139
0.103139
0.103139
0.103139
0.103139
0.103139
0.103139
0.103139
0.103139
0.103139
0.103139
0.103139
0.103139
0.103139
0.103139
0.103139
0.103139
0.103139
0.103139
0.103139
0.103139
0.103139
0.103139
0.103139
0.103139
0.103139
0.103139
0.103139
0.103139
0.103139
0.103139
0.103139
0.103139
0.103139
0.103139
0.103139
0.103139
0.103139
0.103139
0.103139
0.103139
0.103139
0.103139
0.103139
0.103139
0.103139
0.103139
0.103139
0.103139
0.103139
0.103139
0.103139
0.103139
0.103139
0.103139
0.103139
0.103139
0.103139
0.103139
0.103139
0.103139
0.103139
0.103139
0.103139
0.103139
0.103139
0.103139
0.103139
0.103139
0.103139
0.103139
0.103139
0.103139
0.103139
0.103139
0.103139
0.103139
0.103139
0.103139
0.103139
0.103139
0.103139
0.103139
0.103139
0.103139
0.103139
0.103139
0.103139
0.103139
0.103139
0.103139
0.103139
0.103139
0.103139
0.103139
0.103139
0.103139
0.103139
0.103139
0.103139
0.103139
0.103139
0.103139
0.103139
0.103139
0.103139
0.103139
0.103139
0.103139
0.103139
0.103139
0.103139
0.103139
0.103139
0.103139
0.103139
0.103139
0.103139
0.103139
0.103139
0.103139
0.103139
0.103139
0.103139
0.103139
0.103139
0.103139
0.103139
0.103139
0.103139
0.103139
0.103139
0.103139
0.103139
0.103139
0.103139
0.103139
0.103139
0.103139
0.103139
0.103139
0.103139
0.103139
0.103139
0.103139
0.103139
0.103139
0.103139
0.103139
0.103139
0.103139
0.103139
0.103139
0.103139
0.103139
0.103139
0.103139
0.103139
0.103139
0.103139
0.103139
0.103139
0.103139
0.103139
0.103139
0.103139
0.103139
0.103139
0.103139
0.103139
0.103139
0.103139
0.103139
0.103139
0.103139
0.103139
0.103139
0.103139
0.103139
0.103139
0.103139
0.103139
0.103139
0.103139
0.103139
0.103139
0.103139
0.103139
0.103139
0.103139
0.103139
0.103139
0.103139
0.103139
0.103139
)
;

boundaryField
{
    fixedWall
    {
        type            zeroGradient;
    }
    outlet
    {
        type            inletOutlet;
        inletValue      uniform 0;
        value           uniform 0.103139;
    }
    defaultFaces
    {
        type            empty;
    }
}


// ************************************************************************* //
