/*--------------------------------*- C++ -*----------------------------------*\
| =========                 |                                                 |
| \\      /  F ield         | OpenFOAM: The Open Source CFD Toolbox           |
|  \\    /   O peration     | Version:  2406                                  |
|   \\  /    A nd           | Website:  www.openfoam.com                      |
|    \\/     M anipulation  |                                                 |
\*---------------------------------------------------------------------------*/
FoamFile
{
    version     2.0;
    format      ascii;
    arch        "LSB;label=32;scalar=64";
    class       surfaceScalarField;
    location    "2";
    object      phi;
}
// * * * * * * * * * * * * * * * * * * * * * * * * * * * * * * * * * * * * * //

dimensions      [1 0 -1 0 0 0 0];

oriented        oriented;

internalField   nonuniform List<scalar> 
999
(
-2.43878e-07
-6.71125e-07
-1.15829e-06
-1.66103e-06
-2.161e-06
-2.65007e-06
-3.12465e-06
-3.58321e-06
-4.02532e-06
-4.45103e-06
-4.86067e-06
-5.25467e-06
-5.63354e-06
-5.99777e-06
-6.34785e-06
-6.68425e-06
-7.00741e-06
-7.31775e-06
-7.61567e-06
-7.90153e-06
-8.17569e-06
-8.43849e-06
-8.69023e-06
-8.93123e-06
-9.16179e-06
-9.38218e-06
-9.59268e-06
-9.79357e-06
-9.9851e-06
-1.01675e-05
-1.03411e-05
-1.05062e-05
-1.06629e-05
-1.08115e-05
-1.09523e-05
-1.10855e-05
-1.12114e-05
-1.13303e-05
-1.14423e-05
-1.15477e-05
-1.16468e-05
-1.17397e-05
-1.18269e-05
-1.19084e-05
-1.19845e-05
-1.20555e-05
-1.21222e-05
-1.21829e-05
-1.22395e-05
-1.22924e-05
-1.23415e-05
-1.23869e-05
-1.24287e-05
-1.24672e-05
-1.25025e-05
-1.25348e-05
-1.25645e-05
-1.25915e-05
-1.26162e-05
-1.26387e-05
-1.26591e-05
-1.26776e-05
-1.26944e-05
-1.27095e-05
-1.27232e-05
-1.27355e-05
-1.27466e-05
-1.27565e-05
-1.27655e-05
-1.27735e-05
-1.27807e-05
-1.27871e-05
-1.27929e-05
-1.2798e-05
-1.28027e-05
-1.28068e-05
-1.28106e-05
-1.2814e-05
-1.2817e-05
-1.28198e-05
-1.28224e-05
-1.28247e-05
-1.28269e-05
-1.28289e-05
-1.28307e-05
-1.28325e-05
-1.28342e-05
-1.28358e-05
-1.28374e-05
-1.28389e-05
-1.28404e-05
-1.28418e-05
-1.28433e-05
-1.28447e-05
-1.28461e-05
-1.28475e-05
-1.2849e-05
-1.28504e-05
-1.28518e-05
-1.28532e-05
-1.28546e-05
-1.28561e-05
-1.28575e-05
-1.2859e-05
-1.28604e-05
-1.28619e-05
-1.28633e-05
-1.28648e-05
-1.28662e-05
-1.28677e-05
-1.28692e-05
-1.28706e-05
-1.28721e-05
-1.28736e-05
-1.2875e-05
-1.28765e-05
-1.2878e-05
-1.28794e-05
-1.28809e-05
-1.28824e-05
-1.28838e-05
-1.28853e-05
-1.28868e-05
-1.28882e-05
-1.28897e-05
-1.28912e-05
-1.28927e-05
-1.28941e-05
-1.28956e-05
-1.28971e-05
-1.28986e-05
-1.29001e-05
-1.29017e-05
-1.29032e-05
-1.29047e-05
-1.29063e-05
-1.29079e-05
-1.29095e-05
-1.29111e-05
-1.29127e-05
-1.29143e-05
-1.29159e-05
-1.29176e-05
-1.29193e-05
-1.29209e-05
-1.29226e-05
-1.29243e-05
-1.2926e-05
-1.29278e-05
-1.29295e-05
-1.29313e-05
-1.2933e-05
-1.29348e-05
-1.29365e-05
-1.29383e-05
-1.294e-05
-1.29418e-05
-1.29436e-05
-1.29453e-05
-1.29471e-05
-1.29489e-05
-1.29506e-05
-1.29524e-05
-1.29541e-05
-1.29558e-05
-1.29576e-05
-1.29593e-05
-1.2961e-05
-1.29627e-05
-1.29645e-05
-1.29662e-05
-1.29679e-05
-1.29696e-05
-1.29713e-05
-1.2973e-05
-1.29747e-05
-1.29764e-05
-1.29781e-05
-1.29798e-05
-1.29815e-05
-1.29832e-05
-1.29849e-05
-1.29867e-05
-1.29884e-05
-1.29901e-05
-1.29919e-05
-1.29937e-05
-1.29955e-05
-1.29972e-05
-1.2999e-05
-1.30008e-05
-1.30026e-05
-1.30045e-05
-1.30063e-05
-1.30081e-05
-1.30099e-05
-1.30118e-05
-1.30136e-05
-1.30154e-05
-1.30172e-05
-1.3019e-05
-1.30209e-05
-1.30227e-05
-1.30245e-05
-1.30263e-05
-1.3028e-05
-1.30298e-05
-1.30316e-05
-1.30334e-05
-1.30351e-05
-1.30369e-05
-1.30386e-05
-1.30404e-05
-1.30421e-05
-1.30438e-05
-1.30456e-05
-1.30473e-05
-1.30491e-05
-1.30509e-05
-1.30526e-05
-1.30544e-05
-1.30562e-05
-1.30579e-05
-1.30597e-05
-1.30615e-05
-1.30633e-05
-1.30651e-05
-1.30669e-05
-1.30687e-05
-1.30705e-05
-1.30723e-05
-1.30741e-05
-1.30759e-05
-1.30777e-05
-1.30795e-05
-1.30813e-05
-1.30831e-05
-1.30848e-05
-1.30866e-05
-1.30883e-05
-1.309e-05
-1.30917e-05
-1.30933e-05
-1.3095e-05
-1.30966e-05
-1.30981e-05
-1.30996e-05
-1.31011e-05
-1.31025e-05
-1.31039e-05
-1.31053e-05
-1.31066e-05
-1.31079e-05
-1.31092e-05
-1.31105e-05
-1.31118e-05
-1.31131e-05
-1.31145e-05
-1.31159e-05
-1.31174e-05
-1.3119e-05
-1.31207e-05
-1.31224e-05
-1.31244e-05
-1.31264e-05
-1.31286e-05
-1.31308e-05
-1.31332e-05
-1.31357e-05
-1.31383e-05
-1.31408e-05
-1.31434e-05
-1.31459e-05
-1.31483e-05
-1.31505e-05
-1.31524e-05
-1.3154e-05
-1.31552e-05
-1.31559e-05
-1.31561e-05
-1.31557e-05
-1.31547e-05
-1.3153e-05
-1.31508e-05
-1.31482e-05
-1.31451e-05
-1.31417e-05
-1.31383e-05
-1.3135e-05
-1.3132e-05
-1.31294e-05
-1.31275e-05
-1.31262e-05
-1.31257e-05
-1.31259e-05
-1.31265e-05
-1.31273e-05
-1.31276e-05
-1.31266e-05
-1.31226e-05
-1.31131e-05
-1.30945e-05
-1.30619e-05
-1.30092e-05
-1.29272e-05
-1.27923e-05
-1.25281e-05
-1.1878e-05
-9.96996e-06
-3.75324e-06
1.84867e-05
0.000135144
0.000291992
0.00046217
0.00061933
0.000741074
0.000822997
0.000873117
0.000902038
0.000918166
0.000926987
0.000931757
0.00093432
0.000935691
0.00093642
0.000936806
0.000937008
0.000937112
0.000937164
0.000937187
0.000937196
0.000937196
0.000937193
0.000937186
0.000937179
0.000937171
0.000937163
0.000937155
0.000937147
0.000937138
0.00093713
0.000937121
0.000937113
0.000937105
0.000937096
0.000937088
0.00093708
0.000937072
0.000937064
0.000937056
0.000937047
0.000937039
0.000937031
0.000937023
0.000937015
0.000937007
0.000936999
0.000936992
0.000936984
0.000936976
0.000936968
0.00093696
0.000936953
0.000936945
0.000936937
0.00093693
0.000936922
0.000936914
0.000936907
0.000936899
0.000936892
0.000936884
0.000936877
0.00093687
0.000936862
0.000936855
0.000936848
0.00093684
0.000936833
0.000936826
0.000936819
0.000936811
0.000936804
0.000936797
0.00093679
0.000936783
0.000936776
0.000936769
0.000936762
0.000936755
0.000936748
0.000936741
0.000936734
0.000936728
0.000936721
0.000936714
0.000936707
0.000936701
0.000936694
0.000936687
0.00093668
0.000936674
0.000936667
0.000936661
0.000936654
0.000936648
0.000936641
0.000936635
0.000936628
0.000936622
0.000936616
0.000936609
0.000936603
0.000936597
0.00093659
0.000936584
0.000936578
0.000936572
0.000936566
0.000936559
0.000936553
0.000936547
0.000936541
0.000936535
0.000936529
0.000936523
0.000936517
0.000936511
0.000936505
0.000936499
0.000936493
0.000936488
0.000936482
0.000936476
0.00093647
0.000936465
0.000936459
0.000936453
0.000936447
0.000936442
0.000936436
0.000936431
0.000936425
0.000936419
0.000936414
0.000936408
0.000936403
0.000936398
0.000936392
0.000936387
0.000936381
0.000936376
0.000936371
0.000936365
0.00093636
0.000936355
0.000936349
0.000936344
0.000936339
0.000936334
0.000936329
0.000936323
0.000936318
0.000936313
0.000936308
0.000936303
0.000936298
0.000936293
0.000936288
0.000936283
0.000936278
0.000936273
0.000936268
0.000936264
0.000936259
0.000936254
0.000936249
0.000936244
0.000936239
0.000936235
0.00093623
0.000936225
0.000936221
0.000936216
0.000936211
0.000936207
0.000936202
0.000936197
0.000936193
0.000936188
0.000936184
0.000936179
0.000936175
0.00093617
0.000936166
0.000936162
0.000936157
0.000936153
0.000936148
0.000936144
0.00093614
0.000936135
0.000936131
0.000936127
0.000936123
0.000936118
0.000936114
0.00093611
0.000936106
0.000936102
0.000936098
0.000936093
0.000936089
0.000936085
0.000936081
0.000936077
0.000936073
0.000936069
0.000936065
0.000936061
0.000936057
0.000936053
0.000936049
0.000936046
0.000936042
0.000936038
0.000936034
0.00093603
0.000936026
0.000936023
0.000936019
0.000936015
0.000936011
0.000936008
0.000936004
0.000936
0.000935997
0.000935993
0.000935989
0.000935986
0.000935982
0.000935978
0.000935975
0.000935971
0.000935968
0.000935964
0.000935961
0.000935957
0.000935954
0.00093595
0.000935947
0.000935944
0.00093594
0.000935937
0.000935933
0.00093593
0.000935927
0.000935924
0.00093592
0.000935917
0.000935914
0.00093591
0.000935907
0.000935904
0.000935901
0.000935897
0.000935894
0.000935891
0.000935888
0.000935885
0.000935882
0.000935879
0.000935876
0.000935872
0.000935869
0.000935866
0.000935863
0.00093586
0.000935857
0.000935854
0.000935851
0.000935848
0.000935846
0.000935843
0.00093584
0.000935837
0.000935834
0.000935831
0.000935828
0.000935825
0.000935823
0.00093582
0.000935817
0.000935814
0.000935811
0.000935809
0.000935806
0.000935803
0.0009358
0.000935798
0.000935795
0.000935792
0.00093579
0.000935787
0.000935784
0.000935782
0.000935779
0.000935777
0.000935774
0.000935772
0.000935769
0.000935766
0.000935764
0.000935761
0.000935759
0.000935756
0.000935754
0.000935751
0.000935749
0.000935747
0.000935744
0.000935742
0.000935739
0.000935737
0.000935735
0.000935732
0.00093573
0.000935727
0.000935725
0.000935723
0.000935721
0.000935718
0.000935716
0.000935714
0.000935711
0.000935709
0.000935707
0.000935705
0.000935703
0.0009357
0.000935698
0.000935696
0.000935694
0.000935692
0.00093569
0.000935687
0.000935685
0.000935683
0.000935681
0.000935679
0.000935677
0.000935675
0.000935673
0.000935671
0.000935669
0.000935667
0.000935665
0.000935663
0.000935661
0.000935659
0.000935657
0.000935655
0.000935653
0.000935651
0.000935649
0.000935647
0.000935645
0.000935643
0.000935641
0.000935639
0.000935638
0.000935636
0.000935634
0.000935632
0.00093563
0.000935628
0.000935627
0.000935625
0.000935623
0.000935621
0.00093562
0.000935618
0.000935616
0.000935614
0.000935613
0.000935611
0.000935609
0.000935607
0.000935606
0.000935604
0.000935602
0.000935601
0.000935599
0.000935597
0.000935596
0.000935594
0.000935593
0.000935591
0.000935589
0.000935588
0.000935586
0.000935585
0.000935583
0.000935582
0.00093558
0.000935578
0.000935577
0.000935575
0.000935574
0.000935572
0.000935571
0.000935569
0.000935568
0.000935566
0.000935565
0.000935564
0.000935562
0.000935561
0.000935559
0.000935558
0.000935556
0.000935555
0.000935554
0.000935552
0.000935551
0.00093555
0.000935548
0.000935547
0.000935545
0.000935544
0.000935543
0.000935541
0.00093554
0.000935539
0.000935538
0.000935536
0.000935535
0.000935534
0.000935532
0.000935531
0.00093553
0.000935529
0.000935527
0.000935526
0.000935525
0.000935524
0.000935523
0.000935521
0.00093552
0.000935519
0.000935518
0.000935517
0.000935515
0.000935514
0.000935513
0.000935512
0.000935511
0.00093551
0.000935509
0.000935507
0.000935506
0.000935505
0.000935504
0.000935503
0.000935502
0.000935501
0.0009355
0.000935499
0.000935498
0.000935497
0.000935496
0.000935495
0.000935494
0.000935493
0.000935491
0.00093549
0.000935489
0.000935488
0.000935487
0.000935486
0.000935486
0.000935485
0.000935484
0.000935483
0.000935482
0.000935481
0.00093548
0.000935479
0.000935478
0.000935477
0.000935476
0.000935475
0.000935474
0.000935473
0.000935472
0.000935471
0.000935471
0.00093547
0.000935469
0.000935468
0.000935467
0.000935466
0.000935465
0.000935465
0.000935464
0.000935463
0.000935462
0.000935461
0.00093546
0.00093546
0.000935459
0.000935458
0.000935457
0.000935456
0.000935456
0.000935455
0.000935454
0.000935453
0.000935453
0.000935452
0.000935451
0.00093545
0.00093545
0.000935449
0.000935448
0.000935447
0.000935447
0.000935446
0.000935445
0.000935444
0.000935444
0.000935443
0.000935442
0.000935442
0.000935441
0.00093544
0.00093544
0.000935439
0.000935438
0.000935438
0.000935437
0.000935436
0.000935436
0.000935435
0.000935434
0.000935434
0.000935433
0.000935432
0.000935432
0.000935431
0.000935431
0.00093543
0.000935429
0.000935429
0.000935428
0.000935428
0.000935427
0.000935426
0.000935426
0.000935425
0.000935425
0.000935424
0.000935424
0.000935423
0.000935422
0.000935422
0.000935421
0.000935421
0.00093542
0.00093542
0.000935419
0.000935419
0.000935418
0.000935418
0.000935417
0.000935417
0.000935416
0.000935416
0.000935415
0.000935415
0.000935414
0.000935414
0.000935413
0.000935413
0.000935412
0.000935412
0.000935411
0.000935411
0.00093541
0.00093541
0.00093541
0.000935409
0.000935409
0.000935408
0.000935408
0.000935407
0.000935407
0.000935407
0.000935406
0.000935406
0.000935405
0.000935405
0.000935405
0.000935404
0.000935404
0.000935403
0.000935403
0.000935403
0.000935402
0.000935402
0.000935401
0.000935401
0.000935401
0.0009354
0.0009354
0.0009354
0.000935399
0.000935399
0.000935399
0.000935398
0.000935398
0.000935398
0.000935397
0.000935397
0.000935397
0.000935396
0.000935396
0.000935396
0.000935395
0.000935395
0.000935395
0.000935394
0.000935394
0.000935394
0.000935394
0.000935393
0.000935393
0.000935393
0.000935392
0.000935392
0.000935392
0.000935392
0.000935391
0.000935391
0.000935391
0.000935391
0.00093539
0.00093539
0.00093539
0.00093539
0.000935389
0.000935389
0.000935389
0.000935389
0.000935388
0.000935388
0.000935388
0.000935388
0.000935388
0.000935387
0.000935387
0.000935387
0.000935387
0.000935387
0.000935386
0.000935386
0.000935386
0.000935386
0.000935386
0.000935386
0.000935385
0.000935385
0.000935385
0.000935385
0.000935385
0.000935384
0.000935384
0.000935384
0.000935384
0.000935384
0.000935384
0.000935384
0.000935383
0.000935383
0.000935383
0.000935383
0.000935383
0.000935383
0.000935383
0.000935383
0.000935382
0.000935382
0.000935382
0.000935382
0.000935382
0.000935382
0.000935382
0.000935382
0.000935382
)
;

boundaryField
{
    fixedWall
    {
        type            calculated;
        value           uniform 0;
    }
    outlet
    {
        type            calculated;
        value           uniform 0.000935382;
    }
    defaultFaces
    {
        type            empty;
    }
}


// ************************************************************************* //
