/*--------------------------------*- C++ -*----------------------------------*\
| =========                 |                                                 |
| \\      /  F ield         | OpenFOAM: The Open Source CFD Toolbox           |
|  \\    /   O peration     | Version:  2406                                  |
|   \\  /    A nd           | Website:  www.openfoam.com                      |
|    \\/     M anipulation  |                                                 |
\*---------------------------------------------------------------------------*/
FoamFile
{
    version     2.0;
    format      ascii;
    arch        "LSB;label=32;scalar=64";
    class       volScalarField;
    location    "2";
    object      Qdot;
}
// * * * * * * * * * * * * * * * * * * * * * * * * * * * * * * * * * * * * * //

dimensions      [1 -1 -3 0 0 0 0];

internalField   nonuniform List<scalar> 
1000
(
-3.55122e-17
4.83411e-08
3.38387e-07
4.80876e-06
3.76918e-05
0.000187521
0.000681217
0.00196704
0.00477392
0.0101203
0.0192632
0.0335945
0.0545044
0.0832377
0.120764
0.167682
0.224163
0.289939
0.364338
0.446342
0.534672
0.627888
0.724475
0.822938
0.92187
1.02001
1.11627
1.20978
1.29985
1.38601
1.46795
1.54554
1.61876
1.68772
1.75258
1.81359
1.87102
1.92518
1.97635
2.02485
2.07096
2.11496
2.15711
2.19762
2.23672
2.2746
2.31142
2.34704
2.38183
2.41628
2.45011
2.48341
2.51624
2.54867
2.58076
2.61255
2.64407
2.67537
2.70647
2.7374
2.76819
2.79887
2.82945
2.85996
2.89042
2.92085
2.95128
2.98172
3.0122
3.04273
3.07335
3.10406
3.13481
3.16537
3.19659
3.22799
3.25958
3.29137
3.32341
3.35569
3.38825
3.4211
3.45428
3.48779
3.52165
3.55589
3.59052
3.62556
3.66103
3.69694
3.73331
3.77017
3.80751
3.84537
3.88374
3.92266
3.96213
4.00217
4.04279
4.08401
4.12583
4.16828
4.21137
4.25511
4.29951
4.34459
4.39036
4.43683
4.48402
4.53194
4.5806
4.63002
4.68021
4.73119
4.78297
4.83557
4.88899
4.94327
4.99841
5.05442
5.11134
5.16918
5.22795
5.28768
5.34839
5.4101
5.47284
5.53664
5.60151
5.6675
5.73409
5.80137
5.87094
5.9417
6.0137
6.08698
6.16157
6.2375
6.31482
6.39356
6.47377
6.55548
6.63874
6.7236
6.81009
6.89825
6.98814
7.07981
7.17329
7.26863
7.36589
7.46511
7.56635
7.66965
7.77508
7.88267
7.99248
8.10457
8.21891
8.33402
8.4535
8.57551
8.70014
8.82744
8.95749
9.09035
9.22609
9.3648
9.50655
9.65144
9.79955
9.95097
10.1058
10.2642
10.4262
10.5919
10.7615
10.9351
11.1128
11.2947
11.4811
11.6721
11.8678
12.0684
12.2741
12.4851
12.7016
12.9238
13.152
13.3862
13.6268
13.874
14.128
14.389
14.6574
14.9334
15.2173
15.5094
15.8099
16.1192
16.4377
16.7656
17.1034
17.4513
17.8099
18.1795
18.5605
18.9535
19.3588
19.7771
20.2088
20.6545
21.1149
21.5906
22.0823
22.5907
23.1166
23.6608
24.2242
24.8078
25.4124
26.0393
26.6894
27.364
28.0644
28.7917
29.5475
30.3333
31.1506
32.0012
32.8868
33.8093
34.7709
35.7738
36.8203
37.913
39.0546
40.2481
41.4966
42.8036
44.1726
45.6077
47.113
48.693
50.3528
52.0974
53.9326
55.8646
57.9
60.0465
62.3132
64.6789
67.1661
69.8378
72.6637
75.6583
78.8366
82.2146
85.8101
89.6429
93.7354
98.1125
102.803
107.838
113.248
118.979
125.258
132.051
139.421
147.436
156.168
165.705
176.145
187.6
200.199
214.09
229.445
246.463
265.378
286.464
310.05
336.528
366.378
400.196
438.271
481.475
531.948
590.374
658.602
738.984
834.591
949.502
1089.23
1261.41
1476.95
1746.63
2102.64
2575.56
3220.56
4125.87
5438.33
7416.41
10547.7
15827.2
25494.7
45346.9
93033.6
229276
674692
2.21881e+06
7.95309e+06
3.91967e+07
3.43311e+06
15863.3
70.7207
0.905147
0.0451913
0.00706138
0.00240204
0.00131352
0.00094348
0.000788728
0.000716143
0.000680074
0.000661398
0.000651679
0.000646515
0.000643857
0.000642333
0.000641617
0.000641166
0.000640992
0.000640865
0.000640798
0.000640764
0.000640681
0.000640673
0.000640736
0.000640669
0.000640736
0.000640737
0.00064074
0.000640741
0.000640743
0.000640745
0.000640748
0.000640751
0.000640753
0.000640689
0.000640692
0.00064076
0.000640762
0.000640698
0.000640701
0.000640703
0.000640771
0.000640708
0.000640776
0.000640712
0.000640781
0.000640784
0.000640787
0.000640788
0.00064079
0.000640793
0.000640729
0.000640797
0.000640799
0.000640737
0.000640739
0.000640741
0.000640744
0.000640813
0.000640815
0.000640817
0.00064082
0.000640756
0.000640824
0.000640827
0.000640829
0.000640765
0.000640834
0.000640836
0.000640773
0.000640841
0.000640843
0.000640845
0.000640848
0.000640785
0.000640854
0.000640856
0.000640792
0.000640795
0.000640797
0.000640799
0.000640867
0.00064087
0.000640872
0.000640874
0.000640877
0.000640879
0.000640882
0.000640818
0.000640821
0.000640823
0.000640891
0.000640827
0.000640896
0.000640833
0.000640836
0.000640904
0.000640905
0.000640909
0.000640911
0.000640847
0.000640849
0.000640852
0.000640854
0.000640922
0.000640924
0.000640861
0.000640929
0.000640932
0.000640869
0.000640937
0.000640939
0.000640876
0.000640878
0.000640881
0.000640949
0.000640951
0.000640953
0.000640956
0.000640958
0.00064096
0.000640897
0.000640965
0.000640967
0.00064097
0.000640906
0.000640974
0.000640911
0.000640914
0.000640981
0.000640919
0.000640987
0.000640988
0.000640991
0.000640993
0.000640996
0.000640998
0.000641001
0.000640937
0.000641006
0.000640943
0.000641011
0.000641013
0.000641016
0.000641018
0.000641021
0.000640957
0.000641025
0.000640962
0.000640964
0.000640966
0.000641035
0.000640971
0.000640973
0.000641041
0.000640977
0.00064098
0.000640982
0.000640984
0.000641053
0.00064099
0.000641058
0.000641061
0.000640997
0.000640999
0.000641067
0.000641071
0.000641073
0.000641009
0.000641077
0.000641079
0.000641082
0.000641018
0.000641021
0.000641089
0.000641026
0.000641094
0.000641096
0.000641099
0.000641035
0.000641037
0.000641106
0.000641109
0.000641111
0.000641114
0.000641116
0.000641118
0.000641121
0.000641122
0.000641059
0.000641128
0.00064113
0.000641066
0.000641134
0.000641137
0.00064114
0.000641076
0.000641145
0.000641082
0.00064115
0.000641152
0.000641155
0.000641091
0.000641159
0.000641161
0.000641099
0.000641167
0.000641103
0.000641171
0.000641174
0.000641176
0.000641179
0.000641181
0.000641183
0.000641186
0.000641188
0.000641125
0.000641128
0.000641195
0.000641198
0.0006412
0.000641203
0.000641205
0.000641207
0.000641211
0.000641147
0.00064115
0.000641218
0.000641154
0.000641223
0.000641225
0.000641228
0.00064123
0.000641232
0.000641235
0.000641171
0.00064124
0.000641176
0.000641179
0.000641246
0.000641184
0.000641186
0.000641254
0.000641256
0.000641259
0.000641195
0.000641264
0.000641266
0.000641202
0.000641205
0.000641207
0.000641276
0.000641279
0.000641216
0.000641284
0.000641221
0.00064129
0.000641292
0.000641294
0.000641296
0.000641299
0.000641236
0.000641239
0.000641241
0.000641243
0.000641246
0.000641314
0.000641316
0.000641253
0.000641255
0.000641191
0.00064126
0.000641263
0.000641265
0.000641268
0.000641205
0.000641207
0.000641275
0.000641278
0.000641281
0.000641283
0.000641285
0.000641287
0.000641224
0.000641293
0.000641229
0.000641297
0.000641234
0.000641302
0.000641239
0.000641242
0.000641243
0.000641247
0.000641315
0.000641317
0.00064132
0.000641257
0.00064126
0.000641262
0.000641331
0.000641333
0.000641336
0.000641338
0.000641341
0.000641343
0.00064128
0.000641282
0.00064135
0.000641287
0.000641289
0.000641292
0.000641295
0.000641363
0.000641365
0.000641368
0.000641371
0.000641373
0.000641376
0.000641378
0.000641381
0.000641383
0.000641386
0.000641388
0.000641391
0.000641394
0.00064133
0.000641398
0.000641401
0.000641403
0.000641405
0.000641408
0.000641344
0.000641348
0.000641416
0.000641418
0.000641421
0.000641424
0.00064136
0.000641428
0.000641431
0.000641434
0.000641436
0.000641373
0.000641375
0.000641444
0.000641446
0.000641448
0.000641451
0.000641388
0.000641391
0.000641393
0.000641462
0.000641464
0.000641467
0.000641403
0.000641472
0.000641474
0.00064141
0.000641479
0.000641415
0.000641484
0.000641421
0.000641489
0.000641491
0.000641495
0.000641431
0.000641434
0.000641436
0.000641439
0.000641507
0.000641509
0.000641447
0.000641449
0.000641517
0.00064152
0.000641457
0.000641459
0.000641463
0.000641465
0.000641467
0.000641535
0.000641538
0.00064154
0.000641542
0.000641545
0.000641482
0.000641485
0.000641553
0.000641555
0.000641492
0.000641495
0.000641562
0.0006415
0.000641569
0.000641571
0.000641507
0.000641576
0.000641514
0.000641581
0.000641518
0.000641586
0.000641523
0.000641592
0.000641594
0.000641597
0.000641534
0.000641536
0.000641604
0.000641607
0.000641543
0.000641545
0.000641549
0.000641551
0.000641619
0.000641556
0.000641624
0.000641628
0.00064163
0.000641632
0.000641635
0.000641637
0.000641573
0.000641642
0.000641646
0.000641648
0.00064165
0.000641653
0.00064159
0.000641658
0.00064166
0.000641597
0.000641666
0.000641668
0.000641671
0.000641673
0.00064161
0.000641613
0.000641615
0.000641683
0.000641621
0.000641622
0.000641692
0.000641694
0.000641697
0.000641699
0.000641701
0.000641638
0.000641706
0.00064171
0.000641646
0.000641715
0.000641717
0.000641653
0.000641722
0.000641658
0.000641728
0.000641731
0.000641733
0.000641736
0.000641738
0.000641741
0.000641743
0.000641746
0.000641748
0.00064175
0.000641754
0.000641756
0.000641758
0.000641761
0.000641698
0.0006417
0.000641769
0.000641771
0.000641708
0.000641776
0.000641779
0.000641715
0.000641718
0.000641721
0.000641789
0.000641793
0.000641796
0.000641798
0.000641735
0.000641738
0.00064174
0.000641808
0.000641745
0.000641747
0.000641816
0.000641819
0.00064182
0.000641757
0.000641826
0.000641829
0.000641832
0.000641833
0.000641836
0.000641839
0.000641775
0.000641843
0.00064178
0.000641848
0.000641851
0.000641853
0.00064179
0.000641858
0.000641861
0.000641864
0.000641867
0.00064187
0.000641872
0.000641875
0.000641877
0.000641879
0.000641818
0.000641886
0.000641823
0.000641891
0.000641894
0.000641896
0.000641899
0.000641901
0.000641904
0.000641907
0.000641844
0.000641847
0.00064185
0.000641918
0.00064192
0.000641924
0.000641926
0.000641928
0.00064193
0.000641933
0.000641935
0.000641938
0.000641941
0.000641943
0.000641946
0.000641883
0.000641951
0.000641954
0.000641957
0.000641959
0.000641961
0.000641963
0.000641967
0.000641903
0.000641906
0.000641974
0.000641976
0.000641979
0.000641916
0.000641984
0.000641988
0.000641926
0.000641928
0.000641931
0.000641998
0.000642002
0.000642004
0.000641941
0.00064201
0.000642012
0.000641948
0.000641951
0.000641954
0.000642022
0.000641959
0.000642027
0.000641965
0.000641967
0.00064197
0.000641907
0.000641975
0.000641978
0.00064198
0.000641982
0.000641986
0.000641989
0.000641991
0.000641993
0.000641996
0.000641933
0.000642001
0.000642003
0.000641941
0.000641944
0.000642012
0.000642015
0.000641952
0.00064202
0.000642023
0.000642025
0.000642028
0.00064203
0.000642034
0.000642035
0.000642038
0.000642041
0.000641978
0.000641979
0.000641983
0.000642052
0.000642054
0.000642057
0.00064206
0.000641997
0.000642
0.000642068
0.000642071
0.000642073
0.000642076
0.000642078
0.000642081
0.000642018
0.000642087
0.000642023
0.000642092
0.000642094
0.000642097
0.000642101
0.000642103
0.000642105
0.000642108
0.00064211
0.000642047
0.000642115
0.000642053
0.000642121
0.000642058
0.00064206
0.000642129
0.000642066
0.000642135
0.000642071
0.000642141
0.000642077
0.000642145
0.000642083
0.000642151
0.000642154
0.000642156
0.000642159
0.000642161
0.000642164
0.000642168
0.000642169
0.000642172
0.000642109
0.000642112
0.000642181
0.000642117
0.000642186
0.000642187
0.000642191
0.000642194
0.00064213
0.000642133
0.000642202
0.000642205
0.000642207
0.00064221
0.000642213
0.000642216
0.000642152
0.000642221
0.000642224
0.000642226
0.000642229
0.000642232
0.000642234
0.00064217
0.00064224
0.000642242
0.000642245
0.000642249
0.000642251
0.000642254
0.000642256
0.000642259
0.000642262
0.000642199
0.000642266
0.000642204
)
;

boundaryField
{
    fixedWall
    {
        type            calculated;
        value           uniform 0;
    }
    outlet
    {
        type            calculated;
        value           uniform 0;
    }
    defaultFaces
    {
        type            empty;
    }
}


// ************************************************************************* //
