/*--------------------------------*- C++ -*----------------------------------*\
| =========                 |                                                 |
| \\      /  F ield         | OpenFOAM: The Open Source CFD Toolbox           |
|  \\    /   O peration     | Version:  2406                                  |
|   \\  /    A nd           | Website:  www.openfoam.com                      |
|    \\/     M anipulation  |                                                 |
\*---------------------------------------------------------------------------*/
FoamFile
{
    version     2.0;
    format      ascii;
    arch        "LSB;label=32;scalar=64";
    class       volScalarField;
    location    "2";
    object      T;
}
// * * * * * * * * * * * * * * * * * * * * * * * * * * * * * * * * * * * * * //

dimensions      [0 0 0 1 0 0 0];

internalField   nonuniform List<scalar> 
1000
(
324.546
376.876
421.572
460.741
495.646
527.122
555.753
581.967
606.09
628.375
649.026
668.208
686.06
702.697
718.219
732.711
746.251
758.903
770.729
781.782
792.111
801.761
810.773
819.184
827.031
834.347
841.161
847.504
853.403
858.883
863.969
868.684
873.051
877.09
880.821
884.262
887.433
890.35
893.029
895.486
897.735
899.791
901.667
903.375
904.927
906.336
907.611
908.756
909.785
910.719
911.557
912.307
912.975
913.568
914.095
914.559
914.968
915.326
915.638
915.909
916.143
916.344
916.515
916.659
916.781
916.881
916.963
917.03
917.082
917.122
917.151
917.171
917.184
917.19
917.19
917.186
917.178
917.167
917.153
917.137
917.12
917.102
917.083
917.064
917.044
917.024
917.004
916.985
916.966
916.948
916.93
916.912
916.895
916.879
916.863
916.848
916.834
916.82
916.806
916.794
916.782
916.77
916.759
916.748
916.738
916.729
916.719
916.711
916.702
916.695
916.687
916.68
916.674
916.667
916.662
916.656
916.651
916.646
916.642
916.638
916.635
916.631
916.628
916.626
916.624
916.622
916.62
916.619
916.618
916.618
916.617
916.617
916.617
916.618
916.618
916.619
916.62
916.621
916.622
916.623
916.625
916.626
916.628
916.629
916.631
916.632
916.633
916.635
916.636
916.637
916.638
916.639
916.64
916.641
916.642
916.642
916.643
916.643
916.643
916.643
916.643
916.643
916.643
916.643
916.643
916.642
916.642
916.641
916.641
916.641
916.64
916.64
916.639
916.639
916.639
916.638
916.638
916.638
916.638
916.637
916.637
916.637
916.637
916.637
916.636
916.636
916.636
916.636
916.635
916.635
916.634
916.633
916.633
916.632
916.631
916.629
916.628
916.627
916.625
916.623
916.622
916.62
916.618
916.616
916.614
916.612
916.609
916.607
916.605
916.603
916.601
916.598
916.596
916.594
916.592
916.59
916.588
916.586
916.584
916.582
916.579
916.577
916.575
916.573
916.571
916.569
916.566
916.564
916.562
916.559
916.556
916.554
916.551
916.548
916.545
916.542
916.539
916.536
916.533
916.53
916.527
916.524
916.521
916.518
916.516
916.513
916.511
916.509
916.507
916.506
916.505
916.504
916.504
916.505
916.506
916.507
916.509
916.512
916.514
916.517
916.52
916.523
916.525
916.527
916.528
916.529
916.528
916.526
916.523
916.518
916.511
916.502
916.491
916.478
916.464
916.448
916.432
916.414
916.397
916.379
916.363
916.349
916.338
916.33
916.326
916.326
916.331
916.34
916.354
916.372
916.392
916.414
916.435
916.453
916.468
916.475
916.472
916.458
916.431
916.387
916.326
916.248
916.155
916.047
915.922
915.761
915.517
915.077
914.145
911.731
904.166
875.494
679.283
528.902
430.63
370.488
335.647
316.164
305.485
299.698
296.581
294.908
294.011
293.532
293.276
293.139
293.066
293.026
293.006
292.994
292.989
292.985
292.984
292.983
292.982
292.982
292.982
292.982
292.982
292.982
292.982
292.982
292.982
292.982
292.982
292.982
292.982
292.982
292.982
292.982
292.982
292.982
292.982
292.982
292.982
292.982
292.982
292.982
292.982
292.982
292.982
292.982
292.982
292.982
292.982
292.982
292.983
292.983
292.983
292.983
292.983
292.983
292.983
292.983
292.983
292.983
292.983
292.983
292.983
292.983
292.983
292.983
292.983
292.983
292.983
292.983
292.983
292.983
292.983
292.983
292.983
292.983
292.983
292.983
292.983
292.983
292.983
292.983
292.983
292.983
292.983
292.983
292.983
292.983
292.983
292.983
292.983
292.983
292.983
292.984
292.984
292.984
292.984
292.984
292.984
292.984
292.984
292.984
292.984
292.984
292.984
292.984
292.984
292.984
292.984
292.984
292.984
292.984
292.984
292.984
292.984
292.984
292.984
292.984
292.984
292.984
292.984
292.984
292.984
292.984
292.984
292.984
292.984
292.984
292.984
292.984
292.984
292.984
292.984
292.984
292.984
292.984
292.984
292.984
292.985
292.985
292.985
292.985
292.985
292.985
292.985
292.985
292.985
292.985
292.985
292.985
292.985
292.985
292.985
292.985
292.985
292.985
292.985
292.985
292.985
292.985
292.985
292.985
292.985
292.985
292.985
292.985
292.985
292.985
292.985
292.985
292.985
292.985
292.985
292.985
292.985
292.985
292.985
292.985
292.985
292.985
292.985
292.985
292.986
292.986
292.986
292.986
292.986
292.986
292.986
292.986
292.986
292.986
292.986
292.986
292.986
292.986
292.986
292.986
292.986
292.986
292.986
292.986
292.986
292.986
292.986
292.986
292.986
292.986
292.986
292.986
292.986
292.986
292.986
292.986
292.986
292.986
292.986
292.986
292.986
292.986
292.986
292.986
292.986
292.986
292.986
292.986
292.987
292.987
292.987
292.987
292.987
292.987
292.987
292.987
292.987
292.987
292.987
292.987
292.987
292.987
292.987
292.987
292.987
292.987
292.987
292.987
292.987
292.987
292.987
292.987
292.987
292.987
292.987
292.987
292.987
292.987
292.987
292.987
292.987
292.987
292.987
292.987
292.987
292.987
292.987
292.987
292.987
292.987
292.987
292.987
292.988
292.988
292.988
292.988
292.988
292.988
292.988
292.988
292.988
292.988
292.988
292.988
292.988
292.988
292.988
292.988
292.988
292.988
292.988
292.988
292.988
292.988
292.988
292.988
292.988
292.988
292.988
292.988
292.988
292.988
292.988
292.988
292.988
292.988
292.988
292.988
292.988
292.988
292.988
292.988
292.988
292.988
292.989
292.989
292.989
292.989
292.989
292.989
292.989
292.989
292.989
292.989
292.989
292.989
292.989
292.989
292.989
292.989
292.989
292.989
292.989
292.989
292.989
292.989
292.989
292.989
292.989
292.989
292.989
292.989
292.989
292.989
292.989
292.989
292.989
292.989
292.989
292.989
292.989
292.989
292.989
292.989
292.989
292.989
292.989
292.99
292.99
292.99
292.99
292.99
292.99
292.99
292.99
292.99
292.99
292.99
292.99
292.99
292.99
292.99
292.99
292.99
292.99
292.99
292.99
292.99
292.99
292.99
292.99
292.99
292.99
292.99
292.99
292.99
292.99
292.99
292.99
292.99
292.99
292.99
292.99
292.99
292.99
292.99
292.99
292.99
292.99
292.991
292.991
292.991
292.991
292.991
292.991
292.991
292.991
292.991
292.991
292.991
292.991
292.991
292.991
292.991
292.991
292.991
292.991
292.991
292.991
292.991
292.991
292.991
292.991
292.991
292.991
292.991
292.991
292.991
292.991
292.991
292.991
292.991
292.991
292.991
292.991
292.991
292.991
292.991
292.991
292.991
292.991
292.991
292.992
292.992
292.992
292.992
292.992
292.992
292.992
292.992
292.992
292.992
292.992
292.992
292.992
292.992
292.992
292.992
292.992
292.992
292.992
292.992
292.992
292.992
292.992
292.992
292.992
292.992
292.992
292.992
292.992
292.992
292.992
292.992
292.992
292.992
292.992
292.992
292.992
292.992
292.992
292.992
292.992
292.993
292.993
292.993
292.993
292.993
292.993
292.993
292.993
292.993
292.993
292.993
292.993
292.993
292.993
292.993
292.993
292.993
292.993
292.993
292.993
292.993
292.993
292.993
292.993
292.993
292.993
292.993
292.993
292.993
292.993
292.993
292.993
292.993
292.993
292.993
292.993
292.993
292.993
292.993
292.993
292.993
292.993
292.994
292.994
292.994
292.994
292.994
292.994
292.994
292.994
292.994
292.994
292.994
292.994
292.994
292.994
292.994
292.994
292.994
292.994
292.994
292.994
292.994
292.994
292.994
292.994
292.994
292.994
292.994
292.994
292.994
292.994
292.994
292.994
292.994
292.994
292.994
292.994
292.994
292.994
292.994
292.994
292.994
292.994
292.995
292.995
292.995
292.995
292.995
292.995
292.995
292.995
292.995
292.995
292.995
292.995
292.995
292.995
292.995
292.995
292.995
292.995
292.995
292.995
292.995
292.995
292.995
292.995
292.995
292.995
292.995
292.995
292.995
292.995
292.995
292.995
292.995
292.995
292.995
292.995
292.995
292.995
292.995
292.995
292.995
292.996
292.996
292.996
292.996
292.996
292.996
292.996
292.996
292.996
292.996
292.996
292.996
292.996
292.996
292.996
292.996
292.996
292.996
292.996
292.996
292.996
292.996
292.996
292.996
292.996
292.996
292.996
292.996
292.996
292.996
292.996
292.996
292.996
292.996
292.996
292.996
292.996
292.996
292.996
292.996
292.996
292.997
292.997
292.997
292.997
292.997
292.997
292.997
292.997
292.997
292.997
292.997
292.997
292.997
292.997
292.997
292.997
292.997
292.997
292.997
292.997
292.997
292.997
292.997
292.997
292.997
292.997
292.997
292.997
292.997
292.997
292.997
292.997
292.997
292.997
292.997
292.997
292.997
)
;

boundaryField
{
    fixedWall
    {
        type            fixedValue;
        value           uniform 293;
    }
    outlet
    {
        type            inletOutlet;
        inletValue      uniform 293;
        value           uniform 292.997;
    }
    defaultFaces
    {
        type            empty;
    }
}


// ************************************************************************* //
