/*--------------------------------*- C++ -*----------------------------------*\
| =========                 |                                                 |
| \\      /  F ield         | OpenFOAM: The Open Source CFD Toolbox           |
|  \\    /   O peration     | Version:  2406                                  |
|   \\  /    A nd           | Website:  www.openfoam.com                      |
|    \\/     M anipulation  |                                                 |
\*---------------------------------------------------------------------------*/
FoamFile
{
    version     2.0;
    format      ascii;
    arch        "LSB;label=32;scalar=64";
    class       volVectorField;
    location    "2";
    object      U;
}
// * * * * * * * * * * * * * * * * * * * * * * * * * * * * * * * * * * * * * //

dimensions      [0 1 -1 0 0 0 0];

internalField   nonuniform List<vector> 
1000
(
(-1.54911e-05 0 0)
(-6.48211e-05 0 0)
(-0.00014936 0 0)
(-0.000254245 0 0)
(-0.000371836 0 0)
(-0.000498046 0 0)
(-0.000630278 0 0)
(-0.000766587 0 0)
(-0.000905459 0 0)
(-0.00104571 0 0)
(-0.00118641 0 0)
(-0.00132678 0 0)
(-0.0014662 0 0)
(-0.00160416 0 0)
(-0.00174019 0 0)
(-0.00187394 0 0)
(-0.00200508 0 0)
(-0.00213335 0 0)
(-0.00225853 0 0)
(-0.00238041 0 0)
(-0.00249885 0 0)
(-0.00261371 0 0)
(-0.0027249 0 0)
(-0.00283232 0 0)
(-0.00293593 0 0)
(-0.00303568 0 0)
(-0.00313155 0 0)
(-0.00322353 0 0)
(-0.00331163 0 0)
(-0.00339588 0 0)
(-0.00347631 0 0)
(-0.00355296 0 0)
(-0.0036259 0 0)
(-0.00369518 0 0)
(-0.00376088 0 0)
(-0.00382309 0 0)
(-0.00388188 0 0)
(-0.00393736 0 0)
(-0.00398962 0 0)
(-0.00403877 0 0)
(-0.0040849 0 0)
(-0.00412813 0 0)
(-0.00416858 0 0)
(-0.00420634 0 0)
(-0.00424153 0 0)
(-0.00427428 0 0)
(-0.00430476 0 0)
(-0.00433286 0 0)
(-0.0043587 0 0)
(-0.0043827 0 0)
(-0.00440497 0 0)
(-0.0044255 0 0)
(-0.00444433 0 0)
(-0.00446158 0 0)
(-0.00447736 0 0)
(-0.00449175 0 0)
(-0.00450487 0 0)
(-0.0045168 0 0)
(-0.00452762 0 0)
(-0.00453741 0 0)
(-0.00454624 0 0)
(-0.00455427 0 0)
(-0.00456146 0 0)
(-0.00456779 0 0)
(-0.00457366 0 0)
(-0.00457877 0 0)
(-0.0045834 0 0)
(-0.0045876 0 0)
(-0.00459113 0 0)
(-0.00459443 0 0)
(-0.00459727 0 0)
(-0.00459986 0 0)
(-0.0046021 0 0)
(-0.00460405 0 0)
(-0.00460585 0 0)
(-0.00460739 0 0)
(-0.00460877 0 0)
(-0.00460999 0 0)
(-0.00461108 0 0)
(-0.00461205 0 0)
(-0.00461292 0 0)
(-0.0046137 0 0)
(-0.00461441 0 0)
(-0.00461506 0 0)
(-0.00461566 0 0)
(-0.00461622 0 0)
(-0.00461674 0 0)
(-0.00461724 0 0)
(-0.00461771 0 0)
(-0.00461817 0 0)
(-0.00461862 0 0)
(-0.00461906 0 0)
(-0.00461949 0 0)
(-0.00461992 0 0)
(-0.00462036 0 0)
(-0.00462079 0 0)
(-0.00462122 0 0)
(-0.00462166 0 0)
(-0.0046221 0 0)
(-0.00462255 0 0)
(-0.004623 0 0)
(-0.00462346 0 0)
(-0.00462392 0 0)
(-0.00462438 0 0)
(-0.00462485 0 0)
(-0.00462533 0 0)
(-0.0046258 0 0)
(-0.00462628 0 0)
(-0.00462677 0 0)
(-0.00462726 0 0)
(-0.00462775 0 0)
(-0.00462824 0 0)
(-0.00462873 0 0)
(-0.00462923 0 0)
(-0.00462973 0 0)
(-0.00463023 0 0)
(-0.00463073 0 0)
(-0.00463123 0 0)
(-0.00463174 0 0)
(-0.00463224 0 0)
(-0.00463275 0 0)
(-0.00463326 0 0)
(-0.00463378 0 0)
(-0.00463429 0 0)
(-0.00463481 0 0)
(-0.00463533 0 0)
(-0.00463585 0 0)
(-0.00463638 0 0)
(-0.00463691 0 0)
(-0.00463744 0 0)
(-0.00463798 0 0)
(-0.00463852 0 0)
(-0.00463907 0 0)
(-0.00463962 0 0)
(-0.00464018 0 0)
(-0.00464074 0 0)
(-0.0046413 0 0)
(-0.00464188 0 0)
(-0.00464245 0 0)
(-0.00464304 0 0)
(-0.00464363 0 0)
(-0.00464422 0 0)
(-0.00464482 0 0)
(-0.00464543 0 0)
(-0.00464603 0 0)
(-0.00464665 0 0)
(-0.00464727 0 0)
(-0.00464789 0 0)
(-0.00464851 0 0)
(-0.00464914 0 0)
(-0.00464977 0 0)
(-0.00465041 0 0)
(-0.00465104 0 0)
(-0.00465168 0 0)
(-0.00465231 0 0)
(-0.00465295 0 0)
(-0.00465359 0 0)
(-0.00465422 0 0)
(-0.00465486 0 0)
(-0.00465549 0 0)
(-0.00465613 0 0)
(-0.00465676 0 0)
(-0.00465739 0 0)
(-0.00465802 0 0)
(-0.00465864 0 0)
(-0.00465926 0 0)
(-0.00465988 0 0)
(-0.0046605 0 0)
(-0.00466112 0 0)
(-0.00466173 0 0)
(-0.00466234 0 0)
(-0.00466295 0 0)
(-0.00466356 0 0)
(-0.00466417 0 0)
(-0.00466478 0 0)
(-0.00466539 0 0)
(-0.004666 0 0)
(-0.00466661 0 0)
(-0.00466722 0 0)
(-0.00466784 0 0)
(-0.00466845 0 0)
(-0.00466907 0 0)
(-0.00466969 0 0)
(-0.00467031 0 0)
(-0.00467094 0 0)
(-0.00467157 0 0)
(-0.0046722 0 0)
(-0.00467284 0 0)
(-0.00467348 0 0)
(-0.00467412 0 0)
(-0.00467476 0 0)
(-0.00467541 0 0)
(-0.00467605 0 0)
(-0.0046767 0 0)
(-0.00467735 0 0)
(-0.004678 0 0)
(-0.00467865 0 0)
(-0.0046793 0 0)
(-0.00467995 0 0)
(-0.0046806 0 0)
(-0.00468124 0 0)
(-0.00468189 0 0)
(-0.00468253 0 0)
(-0.00468317 0 0)
(-0.0046838 0 0)
(-0.00468443 0 0)
(-0.00468506 0 0)
(-0.00468569 0 0)
(-0.00468631 0 0)
(-0.00468694 0 0)
(-0.00468756 0 0)
(-0.00468817 0 0)
(-0.00468879 0 0)
(-0.00468941 0 0)
(-0.00469002 0 0)
(-0.00469064 0 0)
(-0.00469126 0 0)
(-0.00469188 0 0)
(-0.0046925 0 0)
(-0.00469312 0 0)
(-0.00469375 0 0)
(-0.00469437 0 0)
(-0.004695 0 0)
(-0.00469563 0 0)
(-0.00469626 0 0)
(-0.0046969 0 0)
(-0.00469753 0 0)
(-0.00469817 0 0)
(-0.00469881 0 0)
(-0.00469944 0 0)
(-0.00470008 0 0)
(-0.00470071 0 0)
(-0.00470135 0 0)
(-0.00470198 0 0)
(-0.00470261 0 0)
(-0.00470323 0 0)
(-0.00470385 0 0)
(-0.00470447 0 0)
(-0.00470509 0 0)
(-0.00470569 0 0)
(-0.00470629 0 0)
(-0.00470689 0 0)
(-0.00470747 0 0)
(-0.00470805 0 0)
(-0.00470861 0 0)
(-0.00470917 0 0)
(-0.00470971 0 0)
(-0.00471024 0 0)
(-0.00471075 0 0)
(-0.00471125 0 0)
(-0.00471175 0 0)
(-0.00471223 0 0)
(-0.0047127 0 0)
(-0.00471317 0 0)
(-0.00471364 0 0)
(-0.00471411 0 0)
(-0.00471458 0 0)
(-0.00471508 0 0)
(-0.00471559 0 0)
(-0.00471613 0 0)
(-0.00471668 0 0)
(-0.00471729 0 0)
(-0.00471792 0 0)
(-0.00471859 0 0)
(-0.00471932 0 0)
(-0.00472006 0 0)
(-0.00472087 0 0)
(-0.00472169 0 0)
(-0.00472256 0 0)
(-0.00472344 0 0)
(-0.00472433 0 0)
(-0.00472521 0 0)
(-0.00472608 0 0)
(-0.00472691 0 0)
(-0.00472766 0 0)
(-0.00472832 0 0)
(-0.00472888 0 0)
(-0.0047293 0 0)
(-0.00472955 0 0)
(-0.00472963 0 0)
(-0.0047295 0 0)
(-0.00472917 0 0)
(-0.00472863 0 0)
(-0.0047279 0 0)
(-0.004727 0 0)
(-0.00472595 0 0)
(-0.00472481 0 0)
(-0.00472363 0 0)
(-0.00472247 0 0)
(-0.0047214 0 0)
(-0.00472049 0 0)
(-0.00471978 0 0)
(-0.00471931 0 0)
(-0.00471912 0 0)
(-0.00471913 0 0)
(-0.0047194 0 0)
(-0.00471951 0 0)
(-0.00471972 0 0)
(-0.00471998 0 0)
(-0.00471876 0 0)
(-0.00471631 0 0)
(-0.00471161 0 0)
(-0.00470194 0 0)
(-0.00468769 0 0)
(-0.00465808 0 0)
(-0.00462081 0 0)
(-0.00455347 0 0)
(-0.00456988 0 0)
(-0.00417663 0 0)
(-0.00398362 0 0)
(-0.000270395 0 0)
(0.0197768 0 0)
(0.0523421 0 0)
(0.0778323 0 0)
(0.0926125 0 0)
(0.10041 0 0)
(0.104251 0 0)
(0.106029 0 0)
(0.106867 0 0)
(0.107269 0 0)
(0.107512 0 0)
(0.10762 0 0)
(0.107659 0 0)
(0.107658 0 0)
(0.107742 0 0)
(0.10774 0 0)
(0.107716 0 0)
(0.107683 0 0)
(0.107724 0 0)
(0.107765 0 0)
(0.107696 0 0)
(0.107713 0 0)
(0.107745 0 0)
(0.107691 0 0)
(0.107735 0 0)
(0.10773 0 0)
(0.107683 0 0)
(0.107744 0 0)
(0.107704 0 0)
(0.107716 0 0)
(0.107702 0 0)
(0.107725 0 0)
(0.107721 0 0)
(0.107674 0 0)
(0.107738 0 0)
(0.107684 0 0)
(0.107726 0 0)
(0.107724 0 0)
(0.107663 0 0)
(0.107732 0 0)
(0.107684 0 0)
(0.107729 0 0)
(0.107672 0 0)
(0.107718 0 0)
(0.107716 0 0)
(0.107656 0 0)
(0.107735 0 0)
(0.107671 0 0)
(0.107709 0 0)
(0.107683 0 0)
(0.107713 0 0)
(0.107705 0 0)
(0.10764 0 0)
(0.107738 0 0)
(0.107656 0 0)
(0.107712 0 0)
(0.107706 0 0)
(0.107639 0 0)
(0.107728 0 0)
(0.107666 0 0)
(0.107693 0 0)
(0.107695 0 0)
(0.107656 0 0)
(0.107717 0 0)
(0.107654 0 0)
(0.10768 0 0)
(0.107713 0 0)
(0.107629 0 0)
(0.107714 0 0)
(0.1077 0 0)
(0.107623 0 0)
(0.107707 0 0)
(0.107656 0 0)
(0.107696 0 0)
(0.107689 0 0)
(0.107615 0 0)
(0.107694 0 0)
(0.107711 0 0)
(0.10764 0 0)
(0.107657 0 0)
(0.107681 0 0)
(0.107671 0 0)
(0.107682 0 0)
(0.107633 0 0)
(0.107667 0 0)
(0.107686 0 0)
(0.107654 0 0)
(0.10767 0 0)
(0.107669 0 0)
(0.10764 0 0)
(0.107678 0 0)
(0.107651 0 0)
(0.107666 0 0)
(0.107643 0 0)
(0.107679 0 0)
(0.107674 0 0)
(0.107612 0 0)
(0.107675 0 0)
(0.107682 0 0)
(0.107606 0 0)
(0.107674 0 0)
(0.107691 0 0)
(0.107594 0 0)
(0.107682 0 0)
(0.107634 0 0)
(0.107664 0 0)
(0.107664 0 0)
(0.107618 0 0)
(0.107667 0 0)
(0.107633 0 0)
(0.107668 0 0)
(0.107623 0 0)
(0.107657 0 0)
(0.107655 0 0)
(0.107617 0 0)
(0.107659 0 0)
(0.107663 0 0)
(0.107591 0 0)
(0.10766 0 0)
(0.107676 0 0)
(0.107598 0 0)
(0.107671 0 0)
(0.10764 0 0)
(0.107603 0 0)
(0.107655 0 0)
(0.107645 0 0)
(0.107629 0 0)
(0.107647 0 0)
(0.107603 0 0)
(0.107652 0 0)
(0.107643 0 0)
(0.107621 0 0)
(0.107634 0 0)
(0.107634 0 0)
(0.107653 0 0)
(0.107589 0 0)
(0.107657 0 0)
(0.107612 0 0)
(0.107646 0 0)
(0.107641 0 0)
(0.107592 0 0)
(0.107645 0 0)
(0.107627 0 0)
(0.107623 0 0)
(0.107613 0 0)
(0.107641 0 0)
(0.107604 0 0)
(0.107642 0 0)
(0.107638 0 0)
(0.107575 0 0)
(0.107649 0 0)
(0.107641 0 0)
(0.107594 0 0)
(0.107616 0 0)
(0.107645 0 0)
(0.107582 0 0)
(0.107627 0 0)
(0.10763 0 0)
(0.107621 0 0)
(0.107593 0 0)
(0.107634 0 0)
(0.107627 0 0)
(0.107578 0 0)
(0.10764 0 0)
(0.10762 0 0)
(0.107612 0 0)
(0.107581 0 0)
(0.10762 0 0)
(0.107624 0 0)
(0.10762 0 0)
(0.107619 0 0)
(0.107559 0 0)
(0.107623 0 0)
(0.107651 0 0)
(0.107557 0 0)
(0.107638 0 0)
(0.107583 0 0)
(0.107628 0 0)
(0.107614 0 0)
(0.107569 0 0)
(0.107635 0 0)
(0.107585 0 0)
(0.107625 0 0)
(0.107577 0 0)
(0.107621 0 0)
(0.107619 0 0)
(0.107561 0 0)
(0.107625 0 0)
(0.107616 0 0)
(0.107567 0 0)
(0.107611 0 0)
(0.1076 0 0)
(0.107606 0 0)
(0.107613 0 0)
(0.107569 0 0)
(0.107599 0 0)
(0.107593 0 0)
(0.107626 0 0)
(0.107562 0 0)
(0.10761 0 0)
(0.107622 0 0)
(0.107532 0 0)
(0.107633 0 0)
(0.107617 0 0)
(0.107543 0 0)
(0.107622 0 0)
(0.107612 0 0)
(0.107558 0 0)
(0.10759 0 0)
(0.107627 0 0)
(0.107552 0 0)
(0.107591 0 0)
(0.107624 0 0)
(0.107556 0 0)
(0.107602 0 0)
(0.107579 0 0)
(0.107599 0 0)
(0.107583 0 0)
(0.107573 0 0)
(0.10762 0 0)
(0.107533 0 0)
(0.107614 0 0)
(0.107616 0 0)
(0.107552 0 0)
(0.107598 0 0)
(0.107591 0 0)
(0.107557 0 0)
(0.107605 0 0)
(0.107569 0 0)
(0.107591 0 0)
(0.107606 0 0)
(0.107521 0 0)
(0.107622 0 0)
(0.107601 0 0)
(0.107531 0 0)
(0.107609 0 0)
(0.107601 0 0)
(0.107547 0 0)
(0.107583 0 0)
(0.107578 0 0)
(0.107597 0 0)
(0.107582 0 0)
(0.107515 0 0)
(0.107609 0 0)
(0.107621 0 0)
(0.107526 0 0)
(0.107595 0 0)
(0.107601 0 0)
(0.107522 0 0)
(0.107602 0 0)
(0.107595 0 0)
(0.10753 0 0)
(0.107605 0 0)
(0.107588 0 0)
(0.107537 0 0)
(0.107575 0 0)
(0.107607 0 0)
(0.107556 0 0)
(0.107539 0 0)
(0.107595 0 0)
(0.107568 0 0)
(0.107571 0 0)
(0.107596 0 0)
(0.107513 0 0)
(0.107605 0 0)
(0.10759 0 0)
(0.107517 0 0)
(0.107604 0 0)
(0.107584 0 0)
(0.107519 0 0)
(0.107599 0 0)
(0.107584 0 0)
(0.107531 0 0)
(0.107581 0 0)
(0.107554 0 0)
(0.107582 0 0)
(0.107585 0 0)
(0.107528 0 0)
(0.107572 0 0)
(0.107569 0 0)
(0.107571 0 0)
(0.107581 0 0)
(0.107524 0 0)
(0.107556 0 0)
(0.107606 0 0)
(0.107523 0 0)
(0.107587 0 0)
(0.107545 0 0)
(0.107586 0 0)
(0.107563 0 0)
(0.10752 0 0)
(0.107596 0 0)
(0.107557 0 0)
(0.107527 0 0)
(0.10759 0 0)
(0.107574 0 0)
(0.107531 0 0)
(0.107556 0 0)
(0.107585 0 0)
(0.107527 0 0)
(0.107568 0 0)
(0.107581 0 0)
(0.107552 0 0)
(0.107527 0 0)
(0.107547 0 0)
(0.107587 0 0)
(0.107543 0 0)
(0.107569 0 0)
(0.107556 0 0)
(0.107517 0 0)
(0.107597 0 0)
(0.10756 0 0)
(0.107509 0 0)
(0.107598 0 0)
(0.107527 0 0)
(0.107574 0 0)
(0.107562 0 0)
(0.107514 0 0)
(0.107587 0 0)
(0.107528 0 0)
(0.107565 0 0)
(0.107564 0 0)
(0.107526 0 0)
(0.107585 0 0)
(0.107522 0 0)
(0.107558 0 0)
(0.107546 0 0)
(0.107563 0 0)
(0.107538 0 0)
(0.107537 0 0)
(0.107575 0 0)
(0.107527 0 0)
(0.107578 0 0)
(0.107523 0 0)
(0.107557 0 0)
(0.10757 0 0)
(0.107505 0 0)
(0.107577 0 0)
(0.107567 0 0)
(0.107515 0 0)
(0.107557 0 0)
(0.107562 0 0)
(0.107535 0 0)
(0.107524 0 0)
(0.107577 0 0)
(0.107565 0 0)
(0.1075 0 0)
(0.107565 0 0)
(0.107559 0 0)
(0.107515 0 0)
(0.107585 0 0)
(0.107531 0 0)
(0.107533 0 0)
(0.107542 0 0)
(0.107561 0 0)
(0.107525 0 0)
(0.107561 0 0)
(0.107561 0 0)
(0.1075 0 0)
(0.107552 0 0)
(0.107584 0 0)
(0.10751 0 0)
(0.107533 0 0)
(0.107559 0 0)
(0.107551 0 0)
(0.107518 0 0)
(0.107566 0 0)
(0.107548 0 0)
(0.107501 0 0)
(0.107578 0 0)
(0.107535 0 0)
(0.107525 0 0)
(0.107567 0 0)
(0.107515 0 0)
(0.107559 0 0)
(0.107548 0 0)
(0.107503 0 0)
(0.107581 0 0)
(0.107511 0 0)
(0.107552 0 0)
(0.10755 0 0)
(0.107499 0 0)
(0.107568 0 0)
(0.107534 0 0)
(0.10756 0 0)
(0.107499 0 0)
(0.107563 0 0)
(0.107542 0 0)
(0.107512 0 0)
(0.107556 0 0)
(0.107545 0 0)
(0.107517 0 0)
(0.107539 0 0)
(0.107568 0 0)
(0.107494 0 0)
(0.107559 0 0)
(0.107522 0 0)
(0.107553 0 0)
(0.107541 0 0)
(0.107496 0 0)
(0.107578 0 0)
(0.107508 0 0)
(0.10756 0 0)
(0.107535 0 0)
(0.107508 0 0)
(0.107563 0 0)
(0.107509 0 0)
(0.10755 0 0)
(0.107557 0 0)
(0.107506 0 0)
(0.107536 0 0)
(0.107546 0 0)
(0.107514 0 0)
(0.107543 0 0)
(0.107557 0 0)
(0.107503 0 0)
(0.107544 0 0)
(0.107551 0 0)
(0.107493 0 0)
(0.107562 0 0)
(0.107547 0 0)
(0.107506 0 0)
(0.107529 0 0)
(0.107557 0 0)
(0.107509 0 0)
(0.10753 0 0)
(0.107566 0 0)
(0.10751 0 0)
(0.107517 0 0)
(0.107538 0 0)
(0.107555 0 0)
(0.107501 0 0)
(0.107551 0 0)
(0.107533 0 0)
(0.107506 0 0)
(0.107552 0 0)
(0.107541 0 0)
(0.107502 0 0)
(0.107542 0 0)
(0.10755 0 0)
(0.107498 0 0)
(0.107538 0 0)
(0.107545 0 0)
(0.107505 0 0)
(0.107555 0 0)
(0.107522 0 0)
(0.107506 0 0)
(0.107556 0 0)
(0.107542 0 0)
(0.107495 0 0)
(0.107529 0 0)
(0.107537 0 0)
(0.107543 0 0)
(0.107528 0 0)
(0.107491 0 0)
(0.107574 0 0)
(0.10752 0 0)
(0.107526 0 0)
(0.107487 0 0)
(0.107575 0 0)
(0.107542 0 0)
(0.107493 0 0)
(0.10755 0 0)
(0.107498 0 0)
(0.107556 0 0)
(0.107561 0 0)
(0.107477 0 0)
(0.107541 0 0)
(0.107534 0 0)
(0.107496 0 0)
(0.107555 0 0)
(0.107533 0 0)
(0.107507 0 0)
(0.107532 0 0)
(0.107527 0 0)
(0.107527 0 0)
(0.107523 0 0)
(0.107529 0 0)
(0.107516 0 0)
(0.107541 0 0)
(0.107508 0 0)
(0.107543 0 0)
(0.107531 0 0)
(0.107483 0 0)
(0.107558 0 0)
(0.107539 0 0)
(0.107501 0 0)
(0.107537 0 0)
(0.107518 0 0)
(0.107522 0 0)
(0.107524 0 0)
(0.10754 0 0)
(0.107509 0 0)
(0.10753 0 0)
(0.107536 0 0)
(0.107481 0 0)
(0.107574 0 0)
(0.107534 0 0)
(0.10746 0 0)
(0.107565 0 0)
(0.107537 0 0)
(0.107495 0 0)
(0.107535 0 0)
(0.107509 0 0)
(0.107543 0 0)
(0.107541 0 0)
(0.107482 0 0)
(0.107527 0 0)
(0.10755 0 0)
(0.107513 0 0)
(0.107517 0 0)
(0.10752 0 0)
(0.107539 0 0)
(0.107497 0 0)
(0.107541 0 0)
(0.107526 0 0)
(0.107497 0 0)
(0.107549 0 0)
(0.10751 0 0)
(0.107528 0 0)
(0.107517 0 0)
(0.107528 0 0)
(0.107519 0 0)
(0.107512 0 0)
(0.107534 0 0)
(0.107512 0 0)
(0.10753 0 0)
(0.107509 0 0)
(0.107534 0 0)
(0.107536 0 0)
(0.107497 0 0)
(0.107527 0 0)
(0.107516 0 0)
(0.107537 0 0)
(0.107501 0 0)
(0.107541 0 0)
(0.107524 0 0)
(0.107488 0 0)
(0.107554 0 0)
(0.107508 0 0)
(0.107532 0 0)
(0.107493 0 0)
(0.107545 0 0)
(0.107533 0 0)
(0.107482 0 0)
(0.107564 0 0)
(0.107506 0 0)
(0.107514 0 0)
(0.107493 0 0)
(0.107564 0 0)
(0.107525 0 0)
(0.107477 0 0)
(0.10755 0 0)
(0.10753 0 0)
(0.107498 0 0)
(0.107526 0 0)
(0.107521 0 0)
(0.107526 0 0)
(0.10751 0 0)
(0.107529 0 0)
(0.10752 0 0)
(0.10748 0 0)
(0.107563 0 0)
(0.107529 0 0)
(0.107482 0 0)
(0.10755 0 0)
(0.107503 0 0)
(0.107503 0 0)
(0.107547 0 0)
(0.107512 0 0)
(0.10752 0 0)
(0.107523 0 0)
(0.107477 0 0)
(0.107552 0 0)
(0.107549 0 0)
(0.107478 0 0)
(0.107549 0 0)
(0.107514 0 0)
(0.107486 0 0)
(0.107559 0 0)
(0.107491 0 0)
(0.10754 0 0)
(0.107521 0 0)
(0.107482 0 0)
(0.107553 0 0)
(0.107506 0 0)
(0.107526 0 0)
(0.107507 0 0)
(0.107542 0 0)
(0.107514 0 0)
(0.107512 0 0)
(0.107495 0 0)
(0.107523 0 0)
(0.107546 0 0)
(0.107477 0 0)
(0.107558 0 0)
(0.107491 0 0)
(0.10754 0 0)
(0.107516 0 0)
(0.107489 0 0)
(0.107548 0 0)
(0.1075 0 0)
(0.107533 0 0)
(0.1075 0 0)
(0.107538 0 0)
(0.10752 0 0)
(0.10748 0 0)
(0.107559 0 0)
(0.107492 0 0)
(0.107536 0 0)
(0.107516 0 0)
(0.107492 0 0)
(0.107541 0 0)
(0.107526 0 0)
(0.107499 0 0)
(0.107521 0 0)
(0.107512 0 0)
(0.107531 0 0)
(0.107512 0 0)
(0.107496 0 0)
(0.10755 0 0)
(0.107502 0 0)
(0.107525 0 0)
(0.107494 0 0)
(0.107544 0 0)
(0.107517 0 0)
(0.107493 0 0)
(0.107542 0 0)
(0.107527 0 0)
(0.107475 0 0)
(0.107527 0 0)
(0.107544 0 0)
(0.107517 0 0)
(0.107486 0 0)
(0.107506 0 0)
(0.107554 0 0)
(0.107474 0 0)
(0.107561 0 0)
(0.107509 0 0)
(0.107486 0 0)
(0.10755 0 0)
(0.107504 0 0)
(0.107527 0 0)
(0.10749 0 0)
(0.107541 0 0)
(0.10753 0 0)
(0.107485 0 0)
(0.107537 0 0)
(0.107523 0 0)
(0.10749 0 0)
(0.107527 0 0)
(0.107517 0 0)
(0.107531 0 0)
(0.107515 0 0)
(0.107488 0 0)
(0.107539 0 0)
(0.107531 0 0)
(0.107493 0 0)
(0.107508 0 0)
(0.107537 0 0)
(0.107513 0 0)
(0.107511 0 0)
(0.107517 0 0)
(0.107511 0 0)
(0.107529 0 0)
(0.107532 0 0)
(0.107471 0 0)
(0.107543 0 0)
(0.107526 0 0)
(0.107494 0 0)
(0.107526 0 0)
(0.107501 0 0)
(0.107538 0 0)
(0.107539 0 0)
(0.107452 0 0)
(0.107539 0 0)
(0.107554 0 0)
(0.107473 0 0)
(0.107544 0 0)
(0.107512 0 0)
(0.107494 0 0)
(0.107537 0 0)
(0.107527 0 0)
(0.107487 0 0)
(0.107532 0 0)
(0.107537 0 0)
(0.107473 0 0)
(0.10755 0 0)
(0.107509 0 0)
(0.107517 0 0)
)
;

boundaryField
{
    fixedWall
    {
        type            fixedValue;
        value           uniform (0 0 0);
    }
    outlet
    {
        type            pressureInletOutletVelocity;
        value           uniform (0.107517 0 0);
    }
    defaultFaces
    {
        type            empty;
    }
}


// ************************************************************************* //
