/*--------------------------------*- C++ -*----------------------------------*\
| =========                 |                                                 |
| \\      /  F ield         | OpenFOAM: The Open Source CFD Toolbox           |
|  \\    /   O peration     | Version:  2406                                  |
|   \\  /    A nd           | Website:  www.openfoam.com                      |
|    \\/     M anipulation  |                                                 |
\*---------------------------------------------------------------------------*/
FoamFile
{
    version     2.0;
    format      ascii;
    arch        "LSB;label=32;scalar=64";
    class       volScalarField;
    location    "7.8";
    object      O2;
}
// * * * * * * * * * * * * * * * * * * * * * * * * * * * * * * * * * * * * * //

dimensions      [0 0 0 0 0 0 0];

internalField   nonuniform List<scalar> 
1000
(
1.27028e-06
1.26779e-06
1.26332e-06
1.25723e-06
1.24975e-06
1.2411e-06
1.23141e-06
1.22082e-06
1.20943e-06
1.19733e-06
1.18459e-06
1.17128e-06
1.15745e-06
1.14317e-06
1.12847e-06
1.11339e-06
1.09799e-06
1.08229e-06
1.06633e-06
1.05014e-06
1.03375e-06
1.0172e-06
1.00049e-06
9.83673e-07
9.66762e-07
9.49785e-07
9.32765e-07
9.15725e-07
8.9869e-07
8.8168e-07
8.64718e-07
8.47825e-07
8.31023e-07
8.14331e-07
7.97769e-07
7.81356e-07
7.65111e-07
7.4905e-07
7.33191e-07
7.17549e-07
7.02139e-07
6.86976e-07
6.72071e-07
6.57438e-07
6.43086e-07
6.29026e-07
6.15266e-07
6.01813e-07
5.88675e-07
5.75857e-07
5.63363e-07
5.51196e-07
5.39359e-07
5.27854e-07
5.16681e-07
5.05841e-07
4.95331e-07
4.85151e-07
4.75298e-07
4.65769e-07
4.56561e-07
4.47669e-07
4.39089e-07
4.30815e-07
4.22843e-07
4.15166e-07
4.07779e-07
4.00675e-07
3.93847e-07
3.8729e-07
3.80995e-07
3.74957e-07
3.69168e-07
3.63622e-07
3.5831e-07
3.53226e-07
3.48364e-07
3.43715e-07
3.39273e-07
3.35031e-07
3.30983e-07
3.27121e-07
3.23439e-07
3.19931e-07
3.1659e-07
3.13409e-07
3.10384e-07
3.07508e-07
3.04775e-07
3.0218e-07
2.99716e-07
2.9738e-07
2.95165e-07
2.93067e-07
2.91081e-07
2.89202e-07
2.87426e-07
2.85748e-07
2.84164e-07
2.8267e-07
2.81261e-07
2.79935e-07
2.78688e-07
2.77516e-07
2.76415e-07
2.75383e-07
2.74416e-07
2.73511e-07
2.72665e-07
2.71876e-07
2.71141e-07
2.70458e-07
2.69823e-07
2.69235e-07
2.68691e-07
2.68189e-07
2.67728e-07
2.67304e-07
2.66917e-07
2.66565e-07
2.66245e-07
2.65956e-07
2.65697e-07
2.65466e-07
2.65262e-07
2.65083e-07
2.64928e-07
2.64796e-07
2.64685e-07
2.64595e-07
2.64525e-07
2.64473e-07
2.64438e-07
2.6442e-07
2.64417e-07
2.64429e-07
2.64455e-07
2.64495e-07
2.64547e-07
2.64611e-07
2.64686e-07
2.64772e-07
2.64868e-07
2.64974e-07
2.65088e-07
2.65212e-07
2.65343e-07
2.65481e-07
2.65627e-07
2.6578e-07
2.6594e-07
2.66105e-07
2.66276e-07
2.66452e-07
2.66634e-07
2.66821e-07
2.67012e-07
2.67207e-07
2.67407e-07
2.6761e-07
2.67817e-07
2.68028e-07
2.68242e-07
2.68459e-07
2.68679e-07
2.68902e-07
2.69127e-07
2.69355e-07
2.69585e-07
2.69818e-07
2.70052e-07
2.70289e-07
2.70528e-07
2.70768e-07
2.7101e-07
2.71254e-07
2.715e-07
2.71747e-07
2.71995e-07
2.72245e-07
2.72496e-07
2.72749e-07
2.73002e-07
2.73257e-07
2.73513e-07
2.7377e-07
2.74028e-07
2.74287e-07
2.74547e-07
2.74808e-07
2.7507e-07
2.75333e-07
2.75596e-07
2.75861e-07
2.76126e-07
2.76392e-07
2.76659e-07
2.76926e-07
2.77195e-07
2.77463e-07
2.77733e-07
2.78003e-07
2.78274e-07
2.78545e-07
2.78816e-07
2.79089e-07
2.79363e-07
2.79637e-07
2.79912e-07
2.80187e-07
2.80464e-07
2.8074e-07
2.81017e-07
2.81295e-07
2.81573e-07
2.81852e-07
2.82132e-07
2.82412e-07
2.82692e-07
2.82973e-07
2.83255e-07
2.83537e-07
2.8382e-07
2.84103e-07
2.84387e-07
2.84671e-07
2.84956e-07
2.85241e-07
2.85527e-07
2.85813e-07
2.861e-07
2.86387e-07
2.86675e-07
2.86964e-07
2.87253e-07
2.87542e-07
2.87832e-07
2.88123e-07
2.88414e-07
2.88705e-07
2.88997e-07
2.8929e-07
2.89583e-07
2.89876e-07
2.9017e-07
2.90465e-07
2.9076e-07
2.91056e-07
2.91352e-07
2.91648e-07
2.91946e-07
2.92243e-07
2.92542e-07
2.9284e-07
2.9314e-07
2.93439e-07
2.9374e-07
2.9404e-07
2.94342e-07
2.94644e-07
2.94946e-07
2.95249e-07
2.95552e-07
2.95856e-07
2.96161e-07
2.96466e-07
2.96772e-07
2.97078e-07
2.97384e-07
2.97692e-07
2.97999e-07
2.98308e-07
2.98616e-07
2.98926e-07
2.99236e-07
2.99546e-07
2.99857e-07
3.00169e-07
3.00481e-07
3.00793e-07
3.01107e-07
3.01421e-07
3.01735e-07
3.0205e-07
3.02365e-07
3.02681e-07
3.02998e-07
3.03315e-07
3.03633e-07
3.03951e-07
3.0427e-07
3.0459e-07
3.0491e-07
3.05231e-07
3.05552e-07
3.05874e-07
3.06196e-07
3.06519e-07
3.06842e-07
3.07164e-07
3.07489e-07
3.07815e-07
3.08141e-07
3.08468e-07
3.08795e-07
3.09123e-07
3.09452e-07
3.09781e-07
3.10111e-07
3.10441e-07
3.10772e-07
3.11104e-07
3.11437e-07
3.1177e-07
3.12103e-07
3.12438e-07
3.12773e-07
3.13109e-07
3.13445e-07
3.13782e-07
3.14119e-07
3.14458e-07
3.14797e-07
3.15136e-07
3.15477e-07
3.15818e-07
3.16159e-07
3.16502e-07
3.16845e-07
3.17189e-07
3.17533e-07
3.17878e-07
3.18224e-07
3.18571e-07
3.18918e-07
3.19266e-07
3.19615e-07
3.19964e-07
3.20314e-07
3.20665e-07
3.21017e-07
3.21369e-07
3.21723e-07
3.22077e-07
3.22431e-07
3.22787e-07
3.23143e-07
3.235e-07
3.23858e-07
3.24216e-07
3.24575e-07
3.24935e-07
3.25296e-07
3.25658e-07
3.26021e-07
3.26384e-07
3.26748e-07
3.27113e-07
3.27479e-07
3.27845e-07
3.28213e-07
3.28581e-07
3.2895e-07
3.2932e-07
3.29691e-07
3.30062e-07
3.30435e-07
3.30808e-07
3.31183e-07
3.31558e-07
3.31934e-07
3.32311e-07
3.32689e-07
3.33067e-07
3.33447e-07
3.33827e-07
3.34209e-07
3.34591e-07
3.34975e-07
3.35359e-07
3.35744e-07
3.3613e-07
3.36517e-07
3.36905e-07
3.37294e-07
3.37683e-07
3.38074e-07
3.38466e-07
3.38858e-07
3.39252e-07
3.39647e-07
3.40042e-07
3.40439e-07
3.40836e-07
3.41234e-07
3.41634e-07
3.42034e-07
3.42436e-07
3.42838e-07
3.43241e-07
3.43645e-07
3.44051e-07
3.44457e-07
3.44864e-07
3.45272e-07
3.45682e-07
3.46092e-07
3.46503e-07
3.46915e-07
3.47328e-07
3.47743e-07
3.48158e-07
3.48574e-07
3.48991e-07
3.49409e-07
3.49825e-07
3.50246e-07
3.50667e-07
3.5109e-07
3.51513e-07
3.51938e-07
3.52363e-07
3.5279e-07
3.53217e-07
3.53646e-07
3.54075e-07
3.54506e-07
3.54937e-07
3.5537e-07
3.55804e-07
3.56238e-07
3.56674e-07
3.57111e-07
3.57548e-07
3.57987e-07
3.58427e-07
3.58868e-07
3.59308e-07
3.59748e-07
3.60192e-07
3.60637e-07
3.61083e-07
3.6153e-07
3.61978e-07
3.62428e-07
3.62878e-07
3.63329e-07
3.63782e-07
3.64235e-07
3.6469e-07
3.65146e-07
3.65603e-07
3.66061e-07
3.6652e-07
3.6698e-07
3.67442e-07
3.67904e-07
3.68368e-07
3.68833e-07
3.69299e-07
3.69766e-07
3.70234e-07
3.70704e-07
3.71174e-07
3.71646e-07
3.72119e-07
3.72594e-07
3.73069e-07
3.73546e-07
3.74023e-07
3.74503e-07
3.74983e-07
3.75464e-07
3.75947e-07
3.76431e-07
3.76916e-07
3.77403e-07
3.77891e-07
3.7838e-07
3.7887e-07
3.79361e-07
3.79854e-07
3.80348e-07
3.80844e-07
3.8134e-07
3.81839e-07
3.82338e-07
3.82839e-07
3.83341e-07
3.83844e-07
3.84348e-07
3.84854e-07
3.85362e-07
3.8587e-07
3.86381e-07
3.86892e-07
3.87405e-07
3.87919e-07
3.88434e-07
3.88951e-07
3.8947e-07
3.89989e-07
3.90511e-07
3.91033e-07
3.91557e-07
3.92083e-07
3.92609e-07
3.93138e-07
3.93667e-07
3.94199e-07
3.94729e-07
3.95259e-07
3.95795e-07
3.96332e-07
3.96871e-07
3.97411e-07
3.97952e-07
3.98495e-07
3.9904e-07
3.99586e-07
4.00133e-07
4.00682e-07
4.01233e-07
4.01785e-07
4.02339e-07
4.02894e-07
4.03451e-07
4.04009e-07
4.04569e-07
4.0513e-07
4.05693e-07
4.06258e-07
4.06824e-07
4.07392e-07
4.07961e-07
4.08532e-07
4.09105e-07
4.09679e-07
4.10255e-07
4.10832e-07
4.11412e-07
4.11992e-07
4.12575e-07
4.13159e-07
4.13745e-07
4.14332e-07
4.14921e-07
4.15512e-07
4.16104e-07
4.16698e-07
4.17294e-07
4.17891e-07
4.18491e-07
4.19091e-07
4.19694e-07
4.20298e-07
4.20904e-07
4.21512e-07
4.22121e-07
4.22728e-07
4.2334e-07
4.23954e-07
4.24571e-07
4.25188e-07
4.25808e-07
4.2643e-07
4.27053e-07
4.27678e-07
4.28305e-07
4.28933e-07
4.29564e-07
4.30196e-07
4.3083e-07
4.31466e-07
4.32103e-07
4.32743e-07
4.33384e-07
4.34027e-07
4.34672e-07
4.35319e-07
4.35968e-07
4.36619e-07
4.37271e-07
4.37926e-07
4.38582e-07
4.39241e-07
4.39901e-07
4.40563e-07
4.41227e-07
4.41894e-07
4.42562e-07
4.43232e-07
4.43904e-07
4.44578e-07
4.45254e-07
4.45933e-07
4.46613e-07
4.47295e-07
4.4798e-07
4.48666e-07
4.49355e-07
4.50046e-07
4.50739e-07
4.51434e-07
4.52131e-07
4.5283e-07
4.53532e-07
4.54236e-07
4.54942e-07
4.5565e-07
4.5636e-07
4.57073e-07
4.57788e-07
4.58505e-07
4.59224e-07
4.59946e-07
4.6067e-07
4.61396e-07
4.62125e-07
4.62856e-07
4.6359e-07
4.64325e-07
4.65064e-07
4.65804e-07
4.66547e-07
4.67293e-07
4.68041e-07
4.68791e-07
4.69544e-07
4.70296e-07
4.71048e-07
4.71809e-07
4.72571e-07
4.73337e-07
4.74104e-07
4.74875e-07
4.75647e-07
4.76423e-07
4.772e-07
4.77981e-07
4.78764e-07
4.79549e-07
4.80338e-07
4.81129e-07
4.81922e-07
4.82718e-07
4.83517e-07
4.84318e-07
4.85123e-07
4.85929e-07
4.86739e-07
4.87551e-07
4.88366e-07
4.89184e-07
4.90005e-07
4.90828e-07
4.91655e-07
4.92484e-07
4.93315e-07
4.9415e-07
4.94988e-07
4.95828e-07
4.96672e-07
4.97518e-07
4.98367e-07
4.99219e-07
5.00075e-07
5.00933e-07
5.01794e-07
5.02658e-07
5.03525e-07
5.04395e-07
5.05269e-07
5.06145e-07
5.07024e-07
5.07907e-07
5.08792e-07
5.09681e-07
5.10573e-07
5.11468e-07
5.12366e-07
5.13267e-07
5.14171e-07
5.15079e-07
5.1599e-07
5.16904e-07
5.17821e-07
5.18741e-07
5.19665e-07
5.20592e-07
5.21522e-07
5.22456e-07
5.23393e-07
5.24333e-07
5.25276e-07
5.26223e-07
5.27173e-07
5.28126e-07
5.29078e-07
5.30032e-07
5.30995e-07
5.31961e-07
5.32931e-07
5.33904e-07
5.34881e-07
5.3586e-07
5.36844e-07
5.3783e-07
5.3882e-07
5.39814e-07
5.40811e-07
5.41811e-07
5.42815e-07
5.43823e-07
5.44834e-07
5.45848e-07
5.46867e-07
5.47888e-07
5.48914e-07
5.49943e-07
5.50976e-07
5.52012e-07
5.53052e-07
5.54096e-07
5.55144e-07
5.56195e-07
5.57251e-07
5.5831e-07
5.59373e-07
5.6044e-07
5.61511e-07
5.62587e-07
5.63666e-07
5.64749e-07
5.65836e-07
5.66928e-07
5.68023e-07
5.69123e-07
5.70228e-07
5.71336e-07
5.72449e-07
5.73566e-07
5.74688e-07
5.75814e-07
5.76945e-07
5.7808e-07
5.7922e-07
5.80365e-07
5.81514e-07
5.82668e-07
5.83827e-07
5.84991e-07
5.86159e-07
5.87333e-07
5.88511e-07
5.89694e-07
5.90883e-07
5.92076e-07
5.93274e-07
5.94478e-07
5.95678e-07
5.96891e-07
5.9811e-07
5.99334e-07
6.00564e-07
6.01799e-07
6.03039e-07
6.04285e-07
6.05537e-07
6.06794e-07
6.08056e-07
6.09325e-07
6.10598e-07
6.11877e-07
6.13162e-07
6.14453e-07
6.15749e-07
6.17051e-07
6.18359e-07
6.19672e-07
6.20991e-07
6.22316e-07
6.23647e-07
6.24984e-07
6.26326e-07
6.27675e-07
6.29029e-07
6.30389e-07
6.31755e-07
6.33127e-07
6.34505e-07
6.35889e-07
6.3728e-07
6.38676e-07
6.40078e-07
6.41486e-07
6.429e-07
6.44321e-07
6.45747e-07
6.4718e-07
6.48619e-07
6.50064e-07
6.51515e-07
6.52973e-07
6.54436e-07
6.55906e-07
6.57383e-07
6.58865e-07
6.60355e-07
6.6185e-07
6.63352e-07
6.6486e-07
6.66375e-07
6.67897e-07
6.69425e-07
6.70959e-07
6.72501e-07
6.74049e-07
6.75604e-07
6.77165e-07
6.78733e-07
6.80309e-07
6.81891e-07
6.8348e-07
6.85076e-07
6.86679e-07
6.88279e-07
6.89897e-07
6.91522e-07
6.93155e-07
6.94796e-07
6.96444e-07
6.98099e-07
6.99763e-07
7.01434e-07
7.03113e-07
7.04799e-07
7.06494e-07
7.08197e-07
7.09907e-07
7.11626e-07
7.13353e-07
7.15089e-07
7.16833e-07
7.18585e-07
7.20346e-07
7.22116e-07
7.23894e-07
7.25681e-07
7.27478e-07
7.29283e-07
7.31097e-07
7.32921e-07
7.34754e-07
7.36597e-07
7.38449e-07
7.40311e-07
7.42171e-07
7.44052e-07
7.45938e-07
7.47824e-07
7.49732e-07
7.5165e-07
7.53577e-07
7.55515e-07
7.57463e-07
7.59421e-07
7.6139e-07
7.63369e-07
7.65359e-07
7.67359e-07
7.6937e-07
7.71392e-07
7.73425e-07
7.75469e-07
7.77524e-07
7.79591e-07
7.81669e-07
7.83759e-07
7.8586e-07
7.87974e-07
7.90099e-07
7.92238e-07
7.94389e-07
7.96552e-07
7.98729e-07
8.0092e-07
8.03125e-07
8.05344e-07
8.07578e-07
8.09827e-07
8.12093e-07
8.14375e-07
8.16675e-07
8.18993e-07
8.21331e-07
8.2369e-07
8.26071e-07
8.28474e-07
8.30904e-07
8.3336e-07
8.35845e-07
8.38361e-07
8.40912e-07
8.435e-07
8.46129e-07
8.48802e-07
8.51524e-07
8.54299e-07
8.57134e-07
8.60034e-07
8.63007e-07
8.66059e-07
8.69199e-07
8.72438e-07
8.75785e-07
8.79253e-07
8.82854e-07
8.86603e-07
8.90517e-07
8.94614e-07
8.98913e-07
9.03435e-07
9.08207e-07
9.13253e-07
9.18603e-07
9.2429e-07
9.30348e-07
9.36815e-07
9.43735e-07
9.51152e-07
9.59117e-07
9.67683e-07
9.76909e-07
9.8686e-07
9.97602e-07
1.00921e-06
1.02176e-06
1.03535e-06
1.05006e-06
1.06598e-06
1.08323e-06
1.10191e-06
1.12213e-06
1.14403e-06
1.16772e-06
1.19333e-06
1.22102e-06
1.25091e-06
1.28314e-06
1.31788e-06
1.35526e-06
1.39543e-06
1.43853e-06
1.48469e-06
1.53404e-06
1.5867e-06
1.64275e-06
1.70227e-06
1.76531e-06
1.83187e-06
1.90191e-06
1.97536e-06
2.05208e-06
2.13186e-06
2.21441e-06
2.29937e-06
2.38627e-06
2.47455e-06
2.56352e-06
2.6524e-06
2.74026e-06
2.82607e-06
2.90869e-06
2.98684e-06
3.05917e-06
3.12423e-06
3.18051e-06
3.22647e-06
3.26056e-06
3.28114e-06
3.28678e-06
3.27626e-06
3.24817e-06
3.20132e-06
3.13471e-06
3.0475e-06
2.93903e-06
2.80886e-06
2.65677e-06
2.48279e-06
2.28725e-06
2.07077e-06
1.83441e-06
1.57966e-06
1.30866e-06
1.02432e-06
7.30648e-07
4.33152e-07
1.39459e-07
)
;

boundaryField
{
    fixedWall
    {
        type            zeroGradient;
    }
    outlet
    {
        type            inletOutlet;
        inletValue      uniform 0;
        value           uniform 0;
    }
    defaultFaces
    {
        type            empty;
    }
}


// ************************************************************************* //
