/*--------------------------------*- C++ -*----------------------------------*\
| =========                 |                                                 |
| \\      /  F ield         | OpenFOAM: The Open Source CFD Toolbox           |
|  \\    /   O peration     | Version:  2406                                  |
|   \\  /    A nd           | Website:  www.openfoam.com                      |
|    \\/     M anipulation  |                                                 |
\*---------------------------------------------------------------------------*/
FoamFile
{
    version     2.0;
    format      ascii;
    arch        "LSB;label=32;scalar=64";
    class       volScalarField;
    location    "4.8";
    object      O2;
}
// * * * * * * * * * * * * * * * * * * * * * * * * * * * * * * * * * * * * * //

dimensions      [0 0 0 0 0 0 0];

internalField   nonuniform List<scalar> 
1000
(
1.48452e-06
1.481e-06
1.47482e-06
1.46651e-06
1.45645e-06
1.4449e-06
1.43205e-06
1.41808e-06
1.4031e-06
1.38723e-06
1.37057e-06
1.35319e-06
1.33516e-06
1.31656e-06
1.29744e-06
1.27785e-06
1.25785e-06
1.23748e-06
1.21681e-06
1.19586e-06
1.17469e-06
1.15334e-06
1.13186e-06
1.11029e-06
1.08868e-06
1.06707e-06
1.04551e-06
1.02404e-06
1.00269e-06
9.8152e-07
9.60561e-07
9.39853e-07
9.19433e-07
8.99334e-07
8.79591e-07
8.60231e-07
8.41284e-07
8.22773e-07
8.04721e-07
7.87147e-07
7.70066e-07
7.53493e-07
7.37439e-07
7.21912e-07
7.06918e-07
6.9246e-07
6.7854e-07
6.65157e-07
6.52309e-07
6.3999e-07
6.28195e-07
6.16917e-07
6.06146e-07
5.95874e-07
5.86088e-07
5.76778e-07
5.6793e-07
5.59533e-07
5.51573e-07
5.44036e-07
5.36908e-07
5.30175e-07
5.23823e-07
5.17837e-07
5.12203e-07
5.06908e-07
5.01938e-07
4.97278e-07
4.92915e-07
4.88837e-07
4.8503e-07
4.81481e-07
4.78179e-07
4.75112e-07
4.72269e-07
4.69637e-07
4.67207e-07
4.64969e-07
4.62911e-07
4.61026e-07
4.59303e-07
4.57735e-07
4.56311e-07
4.55026e-07
4.5387e-07
4.52836e-07
4.51918e-07
4.51109e-07
4.50403e-07
4.49793e-07
4.49274e-07
4.48841e-07
4.48487e-07
4.4821e-07
4.48002e-07
4.47862e-07
4.47783e-07
4.47763e-07
4.47798e-07
4.47883e-07
4.48017e-07
4.48195e-07
4.48415e-07
4.48674e-07
4.4897e-07
4.493e-07
4.49662e-07
4.50054e-07
4.50473e-07
4.50919e-07
4.51388e-07
4.5188e-07
4.52394e-07
4.52926e-07
4.53477e-07
4.54045e-07
4.54629e-07
4.55228e-07
4.5584e-07
4.56466e-07
4.57103e-07
4.57751e-07
4.5841e-07
4.59079e-07
4.59757e-07
4.60443e-07
4.61138e-07
4.6184e-07
4.62549e-07
4.63264e-07
4.63986e-07
4.64714e-07
4.65447e-07
4.66186e-07
4.66929e-07
4.67678e-07
4.68431e-07
4.69188e-07
4.69949e-07
4.70714e-07
4.71484e-07
4.72257e-07
4.73033e-07
4.73813e-07
4.74596e-07
4.75383e-07
4.76173e-07
4.76966e-07
4.77762e-07
4.78561e-07
4.79363e-07
4.80168e-07
4.80976e-07
4.81787e-07
4.82601e-07
4.83418e-07
4.84237e-07
4.8506e-07
4.85883e-07
4.86704e-07
4.87536e-07
4.88371e-07
4.89209e-07
4.90049e-07
4.90892e-07
4.91738e-07
4.92587e-07
4.93439e-07
4.94294e-07
4.95151e-07
4.96011e-07
4.96875e-07
4.97741e-07
4.9861e-07
4.99483e-07
5.00358e-07
5.01236e-07
5.02118e-07
5.03002e-07
5.0389e-07
5.0478e-07
5.05674e-07
5.06571e-07
5.07472e-07
5.08375e-07
5.09282e-07
5.10192e-07
5.11105e-07
5.12021e-07
5.12941e-07
5.13864e-07
5.1479e-07
5.15719e-07
5.16652e-07
5.17589e-07
5.18528e-07
5.19471e-07
5.20418e-07
5.21368e-07
5.22321e-07
5.23278e-07
5.24238e-07
5.25202e-07
5.26169e-07
5.27139e-07
5.28114e-07
5.29091e-07
5.30073e-07
5.31057e-07
5.32046e-07
5.33038e-07
5.34033e-07
5.35033e-07
5.36036e-07
5.37042e-07
5.38052e-07
5.39066e-07
5.40084e-07
5.41105e-07
5.4213e-07
5.43158e-07
5.44191e-07
5.45227e-07
5.46267e-07
5.47311e-07
5.48358e-07
5.4941e-07
5.50465e-07
5.51524e-07
5.52587e-07
5.53654e-07
5.54725e-07
5.558e-07
5.56878e-07
5.57961e-07
5.59048e-07
5.60138e-07
5.61233e-07
5.62332e-07
5.63435e-07
5.64541e-07
5.65652e-07
5.66767e-07
5.67887e-07
5.6901e-07
5.70137e-07
5.71269e-07
5.72405e-07
5.73545e-07
5.7469e-07
5.75838e-07
5.76991e-07
5.78149e-07
5.7931e-07
5.80476e-07
5.81647e-07
5.82821e-07
5.84001e-07
5.85184e-07
5.86373e-07
5.87565e-07
5.88762e-07
5.89964e-07
5.91171e-07
5.92382e-07
5.93597e-07
5.94817e-07
5.96042e-07
5.97272e-07
5.98506e-07
5.99746e-07
6.0099e-07
6.02239e-07
6.03492e-07
6.04751e-07
6.06015e-07
6.07283e-07
6.08557e-07
6.09836e-07
6.1112e-07
6.12408e-07
6.13703e-07
6.15002e-07
6.16306e-07
6.17616e-07
6.18932e-07
6.20252e-07
6.21578e-07
6.2291e-07
6.24246e-07
6.25589e-07
6.26937e-07
6.28291e-07
6.2965e-07
6.31015e-07
6.32386e-07
6.33763e-07
6.35145e-07
6.36532e-07
6.37913e-07
6.39315e-07
6.40722e-07
6.42134e-07
6.43554e-07
6.44979e-07
6.4641e-07
6.47848e-07
6.49292e-07
6.50743e-07
6.522e-07
6.53663e-07
6.55133e-07
6.5661e-07
6.58093e-07
6.59582e-07
6.61079e-07
6.62582e-07
6.64092e-07
6.65608e-07
6.67132e-07
6.68662e-07
6.702e-07
6.71744e-07
6.73295e-07
6.74853e-07
6.76419e-07
6.77991e-07
6.79571e-07
6.81158e-07
6.82752e-07
6.84354e-07
6.85962e-07
6.87578e-07
6.89202e-07
6.90833e-07
6.92472e-07
6.94118e-07
6.95771e-07
6.97432e-07
6.99101e-07
7.00778e-07
7.02462e-07
7.04155e-07
7.05855e-07
7.07563e-07
7.09279e-07
7.11003e-07
7.12735e-07
7.14475e-07
7.16224e-07
7.1798e-07
7.19745e-07
7.21518e-07
7.233e-07
7.2509e-07
7.26889e-07
7.28697e-07
7.30513e-07
7.32338e-07
7.34172e-07
7.36014e-07
7.37866e-07
7.39727e-07
7.41597e-07
7.43476e-07
7.45365e-07
7.47263e-07
7.49171e-07
7.51088e-07
7.53015e-07
7.54952e-07
7.56898e-07
7.58855e-07
7.60822e-07
7.62799e-07
7.64786e-07
7.66784e-07
7.68792e-07
7.70811e-07
7.72841e-07
7.74882e-07
7.76934e-07
7.78996e-07
7.8107e-07
7.83156e-07
7.85252e-07
7.87361e-07
7.89481e-07
7.91613e-07
7.93756e-07
7.95912e-07
7.9808e-07
8.00261e-07
8.02453e-07
8.04659e-07
8.06877e-07
8.09108e-07
8.11353e-07
8.13602e-07
8.15849e-07
8.18135e-07
8.20432e-07
8.22742e-07
8.25066e-07
8.27404e-07
8.29755e-07
8.3212e-07
8.345e-07
8.36894e-07
8.39302e-07
8.41724e-07
8.44161e-07
8.46612e-07
8.49078e-07
8.51559e-07
8.54055e-07
8.56566e-07
8.59092e-07
8.61633e-07
8.64189e-07
8.6676e-07
8.69347e-07
8.71949e-07
8.74567e-07
8.772e-07
8.79848e-07
8.82513e-07
8.85193e-07
8.87889e-07
8.90601e-07
8.93329e-07
8.96073e-07
8.98834e-07
9.0161e-07
9.04403e-07
9.07213e-07
9.10039e-07
9.12881e-07
9.15741e-07
9.18617e-07
9.21511e-07
9.24421e-07
9.2735e-07
9.30296e-07
9.3326e-07
9.36233e-07
9.39201e-07
9.42222e-07
9.45259e-07
9.48314e-07
9.51388e-07
9.54481e-07
9.57593e-07
9.60724e-07
9.63876e-07
9.67047e-07
9.70239e-07
9.73452e-07
9.76685e-07
9.7994e-07
9.83216e-07
9.86513e-07
9.89833e-07
9.93176e-07
9.9654e-07
9.99928e-07
1.00334e-06
1.00677e-06
1.01023e-06
1.01372e-06
1.01722e-06
1.02076e-06
1.02431e-06
1.0279e-06
1.0315e-06
1.03514e-06
1.0388e-06
1.04249e-06
1.0462e-06
1.04994e-06
1.05371e-06
1.05751e-06
1.06133e-06
1.06519e-06
1.06907e-06
1.07298e-06
1.07692e-06
1.08089e-06
1.08489e-06
1.08891e-06
1.09293e-06
1.09702e-06
1.10115e-06
1.1053e-06
1.10949e-06
1.11371e-06
1.11796e-06
1.12224e-06
1.12655e-06
1.1309e-06
1.13528e-06
1.1397e-06
1.14415e-06
1.14863e-06
1.15315e-06
1.1577e-06
1.16229e-06
1.16692e-06
1.17158e-06
1.17628e-06
1.18101e-06
1.18579e-06
1.1906e-06
1.19545e-06
1.20034e-06
1.20527e-06
1.21024e-06
1.21525e-06
1.22024e-06
1.22534e-06
1.23047e-06
1.23564e-06
1.24086e-06
1.24612e-06
1.25143e-06
1.25678e-06
1.26218e-06
1.26762e-06
1.27311e-06
1.27865e-06
1.28424e-06
1.28987e-06
1.29555e-06
1.30128e-06
1.30707e-06
1.3129e-06
1.31879e-06
1.32472e-06
1.33072e-06
1.33676e-06
1.34287e-06
1.34903e-06
1.35524e-06
1.36152e-06
1.36785e-06
1.37417e-06
1.38061e-06
1.38711e-06
1.39368e-06
1.40032e-06
1.40701e-06
1.41378e-06
1.4206e-06
1.4275e-06
1.43447e-06
1.4415e-06
1.44861e-06
1.45578e-06
1.46304e-06
1.47036e-06
1.47776e-06
1.48524e-06
1.4928e-06
1.50043e-06
1.50815e-06
1.51594e-06
1.52382e-06
1.53179e-06
1.53984e-06
1.54797e-06
1.55619e-06
1.56451e-06
1.57291e-06
1.5814e-06
1.58998e-06
1.59866e-06
1.60743e-06
1.6163e-06
1.62527e-06
1.63434e-06
1.6435e-06
1.65277e-06
1.66214e-06
1.67161e-06
1.68119e-06
1.69088e-06
1.70067e-06
1.71045e-06
1.72047e-06
1.73059e-06
1.74082e-06
1.75118e-06
1.76165e-06
1.77225e-06
1.78297e-06
1.79381e-06
1.80478e-06
1.81588e-06
1.82712e-06
1.83849e-06
1.84999e-06
1.86164e-06
1.87342e-06
1.88536e-06
1.89744e-06
1.90968e-06
1.92207e-06
1.93462e-06
1.94733e-06
1.96021e-06
1.97325e-06
1.98647e-06
1.99987e-06
2.01345e-06
2.02721e-06
2.04116e-06
2.05531e-06
2.06966e-06
2.08421e-06
2.09897e-06
2.11394e-06
2.12913e-06
2.14454e-06
2.16019e-06
2.17608e-06
2.19217e-06
2.20835e-06
2.22499e-06
2.24187e-06
2.25901e-06
2.27643e-06
2.29412e-06
2.3121e-06
2.33037e-06
2.34894e-06
2.36782e-06
2.38701e-06
2.40652e-06
2.42636e-06
2.44653e-06
2.46705e-06
2.48791e-06
2.50913e-06
2.53072e-06
2.55268e-06
2.57501e-06
2.59774e-06
2.62086e-06
2.64438e-06
2.66832e-06
2.69268e-06
2.71747e-06
2.7427e-06
2.76838e-06
2.79453e-06
2.82115e-06
2.84828e-06
2.87577e-06
2.90357e-06
2.93225e-06
2.96143e-06
2.99117e-06
3.02147e-06
3.05237e-06
3.08388e-06
3.11603e-06
3.14883e-06
3.18231e-06
3.2165e-06
3.25142e-06
3.2871e-06
3.32356e-06
3.36085e-06
3.39898e-06
3.43799e-06
3.47792e-06
3.5188e-06
3.56067e-06
3.60356e-06
3.64753e-06
3.6926e-06
3.73884e-06
3.78626e-06
3.83436e-06
3.88436e-06
3.93566e-06
3.98833e-06
4.04244e-06
4.09803e-06
4.15517e-06
4.21393e-06
4.27435e-06
4.33651e-06
4.40048e-06
4.46633e-06
4.53416e-06
4.60404e-06
4.67607e-06
4.75036e-06
4.82702e-06
4.90616e-06
4.98792e-06
5.07242e-06
5.1598e-06
5.25023e-06
5.34385e-06
5.44084e-06
5.54136e-06
5.64561e-06
5.75377e-06
5.86607e-06
5.98272e-06
6.10396e-06
6.23007e-06
6.36132e-06
6.49805e-06
6.64061e-06
6.78942e-06
6.94443e-06
7.1051e-06
7.27557e-06
7.45417e-06
7.64169e-06
7.83898e-06
8.04547e-06
8.2615e-06
8.49219e-06
8.73558e-06
8.99294e-06
9.26549e-06
9.55455e-06
9.86156e-06
1.01882e-05
1.05363e-05
1.09082e-05
1.13063e-05
1.17337e-05
1.2194e-05
1.26912e-05
1.32301e-05
1.38162e-05
1.44561e-05
1.5157e-05
1.59277e-05
1.67782e-05
1.77206e-05
1.8769e-05
1.99409e-05
2.12577e-05
2.27458e-05
2.44392e-05
2.63812e-05
2.86296e-05
3.12631e-05
3.4373e-05
3.80939e-05
4.26343e-05
4.83504e-05
5.56704e-05
6.53452e-05
7.85572e-05
9.72589e-05
0.000125008
0.000169544
0.0002517
0.000437177
0.000951544
0.00262655
0.00874768
0.0374304
0.0706712
0.0874315
0.0955285
0.0994208
0.101308
0.102231
0.102688
0.102914
0.103027
0.103083
0.103111
0.103125
0.103132
0.103136
0.103137
0.103138
0.103139
0.103139
0.103139
0.103139
0.103139
0.103139
0.103139
0.103139
0.103139
0.103139
0.103139
0.103139
0.103139
0.103139
0.103139
0.103139
0.103139
0.103139
0.103139
0.103139
0.103139
0.103139
0.103139
0.103139
0.103139
0.103139
0.103139
0.103139
0.103139
0.103139
0.103139
0.103139
0.103139
0.103139
0.103139
0.103139
0.103139
0.103139
0.103139
0.103139
0.103139
0.103139
0.103139
0.103139
0.103139
0.103139
0.103139
0.103139
0.103139
0.103139
0.103139
0.103139
0.103139
0.103139
0.103139
0.103139
0.103139
0.103139
0.103139
0.103139
0.103139
0.103139
0.103139
0.103139
0.103139
0.103139
0.103139
0.103139
0.103139
0.103139
0.103139
0.103139
0.103139
0.103139
0.103139
0.103139
0.103139
0.103139
0.103139
0.103139
0.103139
0.103139
0.103139
0.103139
0.103139
0.103139
0.103139
0.103139
0.103139
0.103139
0.103139
0.103139
0.103139
0.103139
0.103139
0.103139
0.103139
0.103139
0.103139
0.103139
0.103139
0.103139
0.103139
0.103139
0.103139
0.103139
0.103139
0.103139
0.103139
0.103139
0.103139
0.103139
0.103139
0.103139
0.103139
0.103139
0.103139
0.103139
0.103139
0.103139
0.103139
0.103139
0.103139
0.103139
0.103139
0.103139
0.103139
0.103139
0.103139
0.103139
0.103139
0.103139
0.103139
0.103139
0.103139
0.103139
0.103139
0.103139
0.103139
0.103139
0.103139
0.103139
0.103139
0.103139
0.103139
0.103139
0.103139
0.103139
0.103139
0.103139
0.103139
0.103139
0.103139
0.103139
0.103139
0.103139
0.103139
0.103139
0.103139
0.103139
0.103139
0.103139
0.103139
0.103139
0.103139
0.103139
0.103139
0.103139
0.103139
0.103139
0.103139
0.103139
0.103139
0.103139
0.103139
0.103139
0.103139
0.103139
0.103139
0.103139
0.103139
0.103139
0.103139
0.103139
0.103139
0.103139
0.103139
0.103139
0.103139
0.103139
0.103139
0.103139
0.103139
0.103139
0.103139
0.103139
0.103139
0.103139
0.103139
0.103139
0.103139
0.103139
0.103139
0.103139
0.103139
0.103139
0.103139
0.103139
0.103139
0.103139
0.103139
0.103139
0.103139
0.103139
)
;

boundaryField
{
    fixedWall
    {
        type            zeroGradient;
    }
    outlet
    {
        type            inletOutlet;
        inletValue      uniform 0;
        value           uniform 0.103139;
    }
    defaultFaces
    {
        type            empty;
    }
}


// ************************************************************************* //
