/*--------------------------------*- C++ -*----------------------------------*\
| =========                 |                                                 |
| \\      /  F ield         | OpenFOAM: The Open Source CFD Toolbox           |
|  \\    /   O peration     | Version:  2406                                  |
|   \\  /    A nd           | Website:  www.openfoam.com                      |
|    \\/     M anipulation  |                                                 |
\*---------------------------------------------------------------------------*/
FoamFile
{
    version     2.0;
    format      ascii;
    arch        "LSB;label=32;scalar=64";
    class       volScalarField;
    location    "12.1";
    object      O2;
}
// * * * * * * * * * * * * * * * * * * * * * * * * * * * * * * * * * * * * * //

dimensions      [0 0 0 0 0 0 0];

internalField   nonuniform List<scalar> 
1000
(
1.07065e-06
1.06905e-06
1.06612e-06
1.06206e-06
1.05703e-06
1.05116e-06
1.04453e-06
1.03724e-06
1.02936e-06
1.02093e-06
1.01202e-06
1.00267e-06
9.92924e-07
9.82814e-07
9.72376e-07
9.61639e-07
9.50631e-07
9.39377e-07
9.27901e-07
9.16225e-07
9.04368e-07
8.92351e-07
8.80192e-07
8.67907e-07
8.55513e-07
8.43026e-07
8.3046e-07
8.17829e-07
8.05148e-07
7.9243e-07
7.79687e-07
7.66932e-07
7.54178e-07
7.41435e-07
7.28716e-07
7.16032e-07
7.03393e-07
6.90811e-07
6.78295e-07
6.65856e-07
6.53503e-07
6.41245e-07
6.29093e-07
6.17054e-07
6.05137e-07
5.93351e-07
5.81701e-07
5.70197e-07
5.58845e-07
5.47651e-07
5.36621e-07
5.25762e-07
5.15077e-07
5.04572e-07
4.94251e-07
4.84118e-07
4.74177e-07
4.64429e-07
4.54879e-07
4.45527e-07
4.36376e-07
4.27426e-07
4.1868e-07
4.10137e-07
4.01797e-07
3.9366e-07
3.85727e-07
3.77995e-07
3.70465e-07
3.63133e-07
3.56e-07
3.49063e-07
3.4232e-07
3.35768e-07
3.29406e-07
3.2323e-07
3.17238e-07
3.11426e-07
3.05793e-07
3.00334e-07
2.95046e-07
2.89926e-07
2.8497e-07
2.80176e-07
2.75539e-07
2.71056e-07
2.66723e-07
2.62538e-07
2.58495e-07
2.54592e-07
2.50825e-07
2.47191e-07
2.43686e-07
2.40306e-07
2.37048e-07
2.33908e-07
2.30884e-07
2.27971e-07
2.25167e-07
2.22468e-07
2.19871e-07
2.17374e-07
2.14971e-07
2.12662e-07
2.10443e-07
2.0831e-07
2.06262e-07
2.04295e-07
2.02407e-07
2.00595e-07
1.98856e-07
1.97189e-07
1.9559e-07
1.94057e-07
1.92588e-07
1.91181e-07
1.89834e-07
1.88543e-07
1.87309e-07
1.86127e-07
1.84997e-07
1.83916e-07
1.82884e-07
1.81897e-07
1.80954e-07
1.80054e-07
1.79195e-07
1.78376e-07
1.77594e-07
1.7685e-07
1.7614e-07
1.75464e-07
1.7482e-07
1.74208e-07
1.73626e-07
1.73073e-07
1.72547e-07
1.72048e-07
1.71574e-07
1.71125e-07
1.707e-07
1.70297e-07
1.69916e-07
1.69556e-07
1.69216e-07
1.68895e-07
1.68593e-07
1.68308e-07
1.6804e-07
1.67788e-07
1.67551e-07
1.6733e-07
1.67123e-07
1.6693e-07
1.66749e-07
1.66582e-07
1.66426e-07
1.66282e-07
1.66149e-07
1.66026e-07
1.65914e-07
1.65811e-07
1.65717e-07
1.65633e-07
1.65556e-07
1.65488e-07
1.65428e-07
1.65375e-07
1.65329e-07
1.6529e-07
1.65257e-07
1.65231e-07
1.65211e-07
1.65196e-07
1.65187e-07
1.65182e-07
1.65183e-07
1.65188e-07
1.65198e-07
1.65212e-07
1.65231e-07
1.65253e-07
1.65279e-07
1.65308e-07
1.65341e-07
1.65378e-07
1.65417e-07
1.65459e-07
1.65504e-07
1.65552e-07
1.65602e-07
1.65655e-07
1.6571e-07
1.65768e-07
1.65827e-07
1.65889e-07
1.65952e-07
1.66018e-07
1.66085e-07
1.66154e-07
1.66224e-07
1.66296e-07
1.66369e-07
1.66444e-07
1.6652e-07
1.66597e-07
1.66676e-07
1.66755e-07
1.66836e-07
1.66918e-07
1.67001e-07
1.67085e-07
1.67169e-07
1.67255e-07
1.67341e-07
1.67428e-07
1.67516e-07
1.67605e-07
1.67694e-07
1.67784e-07
1.67875e-07
1.67966e-07
1.68057e-07
1.6815e-07
1.68242e-07
1.68336e-07
1.68429e-07
1.68523e-07
1.68618e-07
1.68713e-07
1.68808e-07
1.68904e-07
1.69e-07
1.69097e-07
1.69193e-07
1.69291e-07
1.69388e-07
1.69486e-07
1.69584e-07
1.69682e-07
1.6978e-07
1.69879e-07
1.69978e-07
1.70077e-07
1.70177e-07
1.70276e-07
1.70376e-07
1.70476e-07
1.70577e-07
1.70677e-07
1.70778e-07
1.70878e-07
1.70979e-07
1.71081e-07
1.71182e-07
1.71283e-07
1.71385e-07
1.71487e-07
1.71588e-07
1.7169e-07
1.71793e-07
1.71895e-07
1.71997e-07
1.721e-07
1.72203e-07
1.72305e-07
1.72408e-07
1.72511e-07
1.72615e-07
1.72718e-07
1.72821e-07
1.72925e-07
1.73028e-07
1.73132e-07
1.73236e-07
1.7334e-07
1.73444e-07
1.73548e-07
1.73652e-07
1.73757e-07
1.73861e-07
1.73965e-07
1.7407e-07
1.74175e-07
1.7428e-07
1.74385e-07
1.7449e-07
1.74595e-07
1.74701e-07
1.74806e-07
1.74912e-07
1.75017e-07
1.75123e-07
1.75228e-07
1.75334e-07
1.7544e-07
1.75546e-07
1.75652e-07
1.75758e-07
1.75865e-07
1.75971e-07
1.76078e-07
1.76185e-07
1.76291e-07
1.76398e-07
1.76505e-07
1.76612e-07
1.7672e-07
1.76827e-07
1.76934e-07
1.77042e-07
1.7715e-07
1.77257e-07
1.77365e-07
1.77473e-07
1.77581e-07
1.7769e-07
1.77798e-07
1.77906e-07
1.78015e-07
1.78124e-07
1.78232e-07
1.78341e-07
1.7845e-07
1.78559e-07
1.78669e-07
1.78778e-07
1.78887e-07
1.78997e-07
1.79107e-07
1.79217e-07
1.79327e-07
1.79437e-07
1.79547e-07
1.79657e-07
1.79768e-07
1.79878e-07
1.79989e-07
1.801e-07
1.80211e-07
1.80322e-07
1.80433e-07
1.80544e-07
1.80656e-07
1.80768e-07
1.80879e-07
1.80991e-07
1.81103e-07
1.81215e-07
1.81328e-07
1.8144e-07
1.81553e-07
1.81665e-07
1.81778e-07
1.81891e-07
1.82004e-07
1.82118e-07
1.82231e-07
1.82344e-07
1.82458e-07
1.82572e-07
1.82686e-07
1.828e-07
1.82914e-07
1.83029e-07
1.83143e-07
1.83258e-07
1.83373e-07
1.83488e-07
1.83603e-07
1.83718e-07
1.83834e-07
1.83949e-07
1.84065e-07
1.84181e-07
1.84297e-07
1.84413e-07
1.84529e-07
1.84646e-07
1.84763e-07
1.84879e-07
1.84996e-07
1.85113e-07
1.85231e-07
1.85348e-07
1.85466e-07
1.85583e-07
1.85701e-07
1.85819e-07
1.85938e-07
1.86056e-07
1.86174e-07
1.86293e-07
1.86412e-07
1.86531e-07
1.8665e-07
1.86769e-07
1.86889e-07
1.87008e-07
1.87128e-07
1.87248e-07
1.87368e-07
1.87488e-07
1.87609e-07
1.87729e-07
1.8785e-07
1.87971e-07
1.88092e-07
1.88213e-07
1.88335e-07
1.88456e-07
1.88578e-07
1.887e-07
1.88822e-07
1.88944e-07
1.89066e-07
1.89189e-07
1.89311e-07
1.89434e-07
1.89557e-07
1.8968e-07
1.89804e-07
1.89927e-07
1.90051e-07
1.90174e-07
1.90298e-07
1.90422e-07
1.90547e-07
1.90671e-07
1.90796e-07
1.90921e-07
1.91045e-07
1.91171e-07
1.91296e-07
1.91421e-07
1.91547e-07
1.91672e-07
1.91798e-07
1.91925e-07
1.92051e-07
1.92177e-07
1.92304e-07
1.92431e-07
1.92557e-07
1.92685e-07
1.92812e-07
1.92939e-07
1.93067e-07
1.93195e-07
1.93323e-07
1.93451e-07
1.93579e-07
1.93707e-07
1.93836e-07
1.93965e-07
1.94094e-07
1.94223e-07
1.94352e-07
1.94481e-07
1.94611e-07
1.94741e-07
1.94871e-07
1.95001e-07
1.95131e-07
1.95262e-07
1.95393e-07
1.95523e-07
1.95654e-07
1.95786e-07
1.95917e-07
1.96048e-07
1.9618e-07
1.96312e-07
1.96444e-07
1.96576e-07
1.96709e-07
1.96842e-07
1.96974e-07
1.97107e-07
1.97241e-07
1.97374e-07
1.97507e-07
1.97641e-07
1.97775e-07
1.97909e-07
1.98043e-07
1.98178e-07
1.98312e-07
1.98447e-07
1.98582e-07
1.98717e-07
1.98853e-07
1.98988e-07
1.99124e-07
1.9926e-07
1.99396e-07
1.99532e-07
1.99669e-07
1.99805e-07
1.99942e-07
2.00079e-07
2.00217e-07
2.00354e-07
2.00492e-07
2.00629e-07
2.00767e-07
2.00906e-07
2.01044e-07
2.01183e-07
2.01321e-07
2.0146e-07
2.01599e-07
2.01739e-07
2.01878e-07
2.02018e-07
2.02158e-07
2.02298e-07
2.02438e-07
2.02579e-07
2.0272e-07
2.0286e-07
2.03002e-07
2.03143e-07
2.03284e-07
2.03426e-07
2.03568e-07
2.0371e-07
2.03852e-07
2.03995e-07
2.04137e-07
2.0428e-07
2.04423e-07
2.04566e-07
2.0471e-07
2.04854e-07
2.04997e-07
2.05142e-07
2.05286e-07
2.0543e-07
2.05575e-07
2.0572e-07
2.05865e-07
2.0601e-07
2.06156e-07
2.06301e-07
2.06447e-07
2.06593e-07
2.0674e-07
2.06886e-07
2.07033e-07
2.0718e-07
2.07327e-07
2.07474e-07
2.07622e-07
2.07769e-07
2.07917e-07
2.08065e-07
2.08214e-07
2.08362e-07
2.08511e-07
2.0866e-07
2.08809e-07
2.08959e-07
2.09108e-07
2.09258e-07
2.09408e-07
2.09558e-07
2.09709e-07
2.0986e-07
2.1001e-07
2.10162e-07
2.10313e-07
2.10464e-07
2.10616e-07
2.10768e-07
2.1092e-07
2.11073e-07
2.11225e-07
2.11378e-07
2.11531e-07
2.11685e-07
2.11838e-07
2.11992e-07
2.12146e-07
2.123e-07
2.12454e-07
2.12609e-07
2.12764e-07
2.12919e-07
2.13074e-07
2.1323e-07
2.13386e-07
2.13542e-07
2.13698e-07
2.13854e-07
2.14011e-07
2.14168e-07
2.14325e-07
2.14482e-07
2.1464e-07
2.14798e-07
2.14956e-07
2.15114e-07
2.15273e-07
2.15432e-07
2.15591e-07
2.1575e-07
2.1591e-07
2.16069e-07
2.16229e-07
2.16389e-07
2.1655e-07
2.16711e-07
2.16872e-07
2.17033e-07
2.17194e-07
2.17356e-07
2.17518e-07
2.1768e-07
2.17843e-07
2.18005e-07
2.18168e-07
2.18331e-07
2.18494e-07
2.18657e-07
2.18821e-07
2.18985e-07
2.1915e-07
2.19315e-07
2.1948e-07
2.19645e-07
2.1981e-07
2.19976e-07
2.20142e-07
2.20308e-07
2.20475e-07
2.20641e-07
2.20808e-07
2.20976e-07
2.21143e-07
2.21311e-07
2.21479e-07
2.21647e-07
2.21816e-07
2.21985e-07
2.22154e-07
2.22323e-07
2.22493e-07
2.22662e-07
2.22832e-07
2.23003e-07
2.23173e-07
2.23344e-07
2.23515e-07
2.23687e-07
2.23859e-07
2.2403e-07
2.24203e-07
2.24375e-07
2.24548e-07
2.24721e-07
2.24894e-07
2.25068e-07
2.25241e-07
2.25415e-07
2.25589e-07
2.25763e-07
2.25938e-07
2.26113e-07
2.26288e-07
2.26464e-07
2.26639e-07
2.26815e-07
2.26992e-07
2.27168e-07
2.27345e-07
2.27522e-07
2.277e-07
2.27878e-07
2.28056e-07
2.28234e-07
2.28412e-07
2.28591e-07
2.2877e-07
2.28949e-07
2.29129e-07
2.29309e-07
2.29489e-07
2.29669e-07
2.2985e-07
2.30031e-07
2.30212e-07
2.30394e-07
2.30575e-07
2.30758e-07
2.3094e-07
2.31122e-07
2.31305e-07
2.31489e-07
2.31672e-07
2.31856e-07
2.3204e-07
2.32224e-07
2.32409e-07
2.32594e-07
2.32779e-07
2.32964e-07
2.3315e-07
2.33336e-07
2.33522e-07
2.33709e-07
2.33896e-07
2.34083e-07
2.34271e-07
2.34459e-07
2.34647e-07
2.34836e-07
2.35024e-07
2.35214e-07
2.35402e-07
2.35592e-07
2.35782e-07
2.35972e-07
2.36162e-07
2.36353e-07
2.36544e-07
2.36736e-07
2.36928e-07
2.3712e-07
2.37313e-07
2.37505e-07
2.37698e-07
2.37891e-07
2.38085e-07
2.38279e-07
2.38473e-07
2.38668e-07
2.38863e-07
2.39058e-07
2.39254e-07
2.3945e-07
2.39646e-07
2.39843e-07
2.4004e-07
2.40238e-07
2.40435e-07
2.40634e-07
2.40832e-07
2.41031e-07
2.4123e-07
2.4143e-07
2.4163e-07
2.4183e-07
2.4203e-07
2.42231e-07
2.42433e-07
2.42635e-07
2.42837e-07
2.43039e-07
2.43242e-07
2.43445e-07
2.43649e-07
2.43853e-07
2.44057e-07
2.44262e-07
2.44467e-07
2.44673e-07
2.44879e-07
2.45086e-07
2.45292e-07
2.455e-07
2.45707e-07
2.45916e-07
2.46124e-07
2.46333e-07
2.46543e-07
2.46753e-07
2.46963e-07
2.47174e-07
2.47386e-07
2.47598e-07
2.47811e-07
2.48024e-07
2.48237e-07
2.48452e-07
2.48666e-07
2.48882e-07
2.49098e-07
2.49315e-07
2.49532e-07
2.49751e-07
2.4997e-07
2.50189e-07
2.5041e-07
2.50631e-07
2.50854e-07
2.51077e-07
2.51301e-07
2.51527e-07
2.51753e-07
2.51981e-07
2.52209e-07
2.52439e-07
2.52671e-07
2.52904e-07
2.53138e-07
2.53374e-07
2.53612e-07
2.53851e-07
2.54092e-07
2.54336e-07
2.54581e-07
2.54829e-07
2.55079e-07
2.55332e-07
2.55588e-07
2.55846e-07
2.56108e-07
2.56373e-07
2.56641e-07
2.56913e-07
2.57189e-07
2.5747e-07
2.57755e-07
2.58044e-07
2.58339e-07
2.58639e-07
2.58945e-07
2.59257e-07
2.59576e-07
2.59902e-07
2.60235e-07
2.60576e-07
2.60925e-07
2.61284e-07
2.61652e-07
2.6203e-07
2.62418e-07
2.62818e-07
2.63231e-07
2.63656e-07
2.64095e-07
2.64548e-07
2.65017e-07
2.65502e-07
2.66004e-07
2.66525e-07
2.67065e-07
2.67626e-07
2.68209e-07
2.68815e-07
2.69445e-07
2.70102e-07
2.70786e-07
2.715e-07
2.72244e-07
2.7302e-07
2.73832e-07
2.74679e-07
2.75565e-07
2.76492e-07
2.77461e-07
2.78476e-07
2.79538e-07
2.80651e-07
2.81816e-07
2.83038e-07
2.84318e-07
2.8566e-07
2.87068e-07
2.88544e-07
2.90092e-07
2.91717e-07
2.9342e-07
2.95208e-07
2.97084e-07
2.99052e-07
3.01117e-07
3.03283e-07
3.05556e-07
3.0794e-07
3.10441e-07
3.13065e-07
3.15817e-07
3.18702e-07
3.21727e-07
3.24899e-07
3.28223e-07
3.31706e-07
3.35355e-07
3.39178e-07
3.43181e-07
3.47372e-07
3.51759e-07
3.56349e-07
3.61151e-07
3.66172e-07
3.71421e-07
3.76907e-07
3.82638e-07
3.88622e-07
3.94869e-07
4.01388e-07
4.08187e-07
4.15276e-07
4.22664e-07
4.30359e-07
4.3837e-07
4.46707e-07
4.55377e-07
4.6439e-07
4.73754e-07
4.83476e-07
4.93565e-07
5.04026e-07
5.14868e-07
5.26095e-07
5.37713e-07
5.49727e-07
5.6214e-07
5.74955e-07
5.88174e-07
6.01796e-07
6.15822e-07
6.30249e-07
6.45072e-07
6.60286e-07
6.75883e-07
6.91854e-07
7.08186e-07
7.24867e-07
7.41878e-07
7.592e-07
7.76812e-07
7.94688e-07
8.128e-07
8.31117e-07
8.49604e-07
8.68223e-07
8.86932e-07
9.05686e-07
9.24436e-07
9.43131e-07
9.61713e-07
9.80125e-07
9.98302e-07
1.01618e-06
1.03369e-06
1.05075e-06
1.0673e-06
1.08325e-06
1.09853e-06
1.11306e-06
1.12674e-06
1.13951e-06
1.15126e-06
1.16193e-06
1.17142e-06
1.17966e-06
1.18655e-06
1.19203e-06
1.196e-06
1.1984e-06
1.19914e-06
1.19818e-06
1.19544e-06
1.19087e-06
1.18439e-06
1.17597e-06
1.16555e-06
1.1531e-06
1.13858e-06
1.12195e-06
1.1032e-06
1.08232e-06
1.05927e-06
1.03408e-06
1.00673e-06
9.77248e-07
9.45647e-07
9.11959e-07
8.76224e-07
8.38491e-07
7.98823e-07
7.57294e-07
7.13993e-07
6.69024e-07
6.22508e-07
5.74585e-07
5.25416e-07
4.75186e-07
4.24106e-07
3.72419e-07
3.20397e-07
2.68352e-07
2.16634e-07
1.65638e-07
1.15804e-07
6.76194e-08
2.16181e-08
)
;

boundaryField
{
    fixedWall
    {
        type            zeroGradient;
    }
    outlet
    {
        type            inletOutlet;
        inletValue      uniform 0;
        value           uniform 0;
    }
    defaultFaces
    {
        type            empty;
    }
}


// ************************************************************************* //
