/*--------------------------------*- C++ -*----------------------------------*\
| =========                 |                                                 |
| \\      /  F ield         | OpenFOAM: The Open Source CFD Toolbox           |
|  \\    /   O peration     | Version:  2406                                  |
|   \\  /    A nd           | Website:  www.openfoam.com                      |
|    \\/     M anipulation  |                                                 |
\*---------------------------------------------------------------------------*/
FoamFile
{
    version     2.0;
    format      ascii;
    arch        "LSB;label=32;scalar=64";
    class       surfaceScalarField;
    location    "6.2";
    object      phi;
}
// * * * * * * * * * * * * * * * * * * * * * * * * * * * * * * * * * * * * * //

dimensions      [1 0 -1 0 0 0 0];

oriented        oriented;

internalField   nonuniform List<scalar> 
999
(
-3.8242e-08
-1.2182e-07
-2.30322e-07
-3.52874e-07
-4.83257e-07
-6.17739e-07
-7.53991e-07
-8.90526e-07
-1.02638e-06
-1.16091e-06
-1.29369e-06
-1.42445e-06
-1.55302e-06
-1.67927e-06
-1.80315e-06
-1.92462e-06
-2.04368e-06
-2.16032e-06
-2.27458e-06
-2.38648e-06
-2.49604e-06
-2.60331e-06
-2.70832e-06
-2.8111e-06
-2.9117e-06
-3.01015e-06
-3.10649e-06
-3.20076e-06
-3.29299e-06
-3.38323e-06
-3.4715e-06
-3.55784e-06
-3.64228e-06
-3.72485e-06
-3.80559e-06
-3.88453e-06
-3.96169e-06
-4.03711e-06
-4.1108e-06
-4.18281e-06
-4.25315e-06
-4.32186e-06
-4.38895e-06
-4.45446e-06
-4.5184e-06
-4.58081e-06
-4.64171e-06
-4.70111e-06
-4.75905e-06
-4.81554e-06
-4.87062e-06
-4.92429e-06
-4.97659e-06
-5.02753e-06
-5.07715e-06
-5.12545e-06
-5.17246e-06
-5.21821e-06
-5.2627e-06
-5.30598e-06
-5.34805e-06
-5.38893e-06
-5.42866e-06
-5.46724e-06
-5.50471e-06
-5.54107e-06
-5.57635e-06
-5.61058e-06
-5.64376e-06
-5.67593e-06
-5.7071e-06
-5.7373e-06
-5.76654e-06
-5.79484e-06
-5.82222e-06
-5.8487e-06
-5.87431e-06
-5.89906e-06
-5.92297e-06
-5.94606e-06
-5.96835e-06
-5.98986e-06
-6.01061e-06
-6.03062e-06
-6.0499e-06
-6.06848e-06
-6.08637e-06
-6.10359e-06
-6.12016e-06
-6.1361e-06
-6.15143e-06
-6.16615e-06
-6.1803e-06
-6.19388e-06
-6.20692e-06
-6.21942e-06
-6.23141e-06
-6.24291e-06
-6.25392e-06
-6.26446e-06
-6.27455e-06
-6.28421e-06
-6.29345e-06
-6.30228e-06
-6.31071e-06
-6.31877e-06
-6.32647e-06
-6.33381e-06
-6.34082e-06
-6.34751e-06
-6.35388e-06
-6.35984e-06
-6.36536e-06
-6.37096e-06
-6.37623e-06
-6.38116e-06
-6.38572e-06
-6.39034e-06
-6.39463e-06
-6.39867e-06
-6.40249e-06
-6.40611e-06
-6.40954e-06
-6.41279e-06
-6.41586e-06
-6.41877e-06
-6.42152e-06
-6.42413e-06
-6.42658e-06
-6.4289e-06
-6.43109e-06
-6.43316e-06
-6.4351e-06
-6.43694e-06
-6.43867e-06
-6.44029e-06
-6.44183e-06
-6.44326e-06
-6.44462e-06
-6.44589e-06
-6.44709e-06
-6.44821e-06
-6.44926e-06
-6.45025e-06
-6.45118e-06
-6.45205e-06
-6.45286e-06
-6.45362e-06
-6.45434e-06
-6.455e-06
-6.45563e-06
-6.45621e-06
-6.45676e-06
-6.45727e-06
-6.45774e-06
-6.45819e-06
-6.4586e-06
-6.45899e-06
-6.45935e-06
-6.45969e-06
-6.46001e-06
-6.4603e-06
-6.46057e-06
-6.46083e-06
-6.46107e-06
-6.46129e-06
-6.46149e-06
-6.46169e-06
-6.46187e-06
-6.46203e-06
-6.46219e-06
-6.46234e-06
-6.46247e-06
-6.4626e-06
-6.46272e-06
-6.46283e-06
-6.46293e-06
-6.46303e-06
-6.46312e-06
-6.4632e-06
-6.46328e-06
-6.46336e-06
-6.46342e-06
-6.46349e-06
-6.46355e-06
-6.46361e-06
-6.46367e-06
-6.46372e-06
-6.46377e-06
-6.46381e-06
-6.46386e-06
-6.4639e-06
-6.46394e-06
-6.46398e-06
-6.46401e-06
-6.46405e-06
-6.46408e-06
-6.46411e-06
-6.46414e-06
-6.46417e-06
-6.4642e-06
-6.46423e-06
-6.46425e-06
-6.46428e-06
-6.4643e-06
-6.46432e-06
-6.46434e-06
-6.46437e-06
-6.46439e-06
-6.46441e-06
-6.46443e-06
-6.46444e-06
-6.46446e-06
-6.46448e-06
-6.4645e-06
-6.46451e-06
-6.46453e-06
-6.46454e-06
-6.46456e-06
-6.46457e-06
-6.46459e-06
-6.4646e-06
-6.46462e-06
-6.46463e-06
-6.46464e-06
-6.46465e-06
-6.46466e-06
-6.46467e-06
-6.46468e-06
-6.46469e-06
-6.4647e-06
-6.46471e-06
-6.46472e-06
-6.46473e-06
-6.46474e-06
-6.46475e-06
-6.46475e-06
-6.46476e-06
-6.46477e-06
-6.46477e-06
-6.46478e-06
-6.46478e-06
-6.46479e-06
-6.46479e-06
-6.46479e-06
-6.4648e-06
-6.4648e-06
-6.4648e-06
-6.46481e-06
-6.46481e-06
-6.46481e-06
-6.46481e-06
-6.46481e-06
-6.46481e-06
-6.46481e-06
-6.46481e-06
-6.46481e-06
-6.46481e-06
-6.46481e-06
-6.46481e-06
-6.46481e-06
-6.4648e-06
-6.4648e-06
-6.4648e-06
-6.4648e-06
-6.46479e-06
-6.46479e-06
-6.46479e-06
-6.46478e-06
-6.46478e-06
-6.46477e-06
-6.46477e-06
-6.46477e-06
-6.46476e-06
-6.46476e-06
-6.46475e-06
-6.46475e-06
-6.46474e-06
-6.46473e-06
-6.46473e-06
-6.46472e-06
-6.46472e-06
-6.46471e-06
-6.4647e-06
-6.4647e-06
-6.46469e-06
-6.46468e-06
-6.46468e-06
-6.46467e-06
-6.46466e-06
-6.46465e-06
-6.46465e-06
-6.46464e-06
-6.46463e-06
-6.46462e-06
-6.46462e-06
-6.46461e-06
-6.4646e-06
-6.46459e-06
-6.46458e-06
-6.46458e-06
-6.46457e-06
-6.46456e-06
-6.46455e-06
-6.46454e-06
-6.46454e-06
-6.46453e-06
-6.46452e-06
-6.46451e-06
-6.4645e-06
-6.4645e-06
-6.46449e-06
-6.46448e-06
-6.46447e-06
-6.46447e-06
-6.46446e-06
-6.46445e-06
-6.46444e-06
-6.46443e-06
-6.46443e-06
-6.46442e-06
-6.46441e-06
-6.4644e-06
-6.4644e-06
-6.46439e-06
-6.46438e-06
-6.46438e-06
-6.46437e-06
-6.46436e-06
-6.46435e-06
-6.46435e-06
-6.46434e-06
-6.46434e-06
-6.46433e-06
-6.46432e-06
-6.46432e-06
-6.46431e-06
-6.4643e-06
-6.4643e-06
-6.4643e-06
-6.46429e-06
-6.46429e-06
-6.46428e-06
-6.46428e-06
-6.46427e-06
-6.46427e-06
-6.46427e-06
-6.46426e-06
-6.46426e-06
-6.46426e-06
-6.46426e-06
-6.46425e-06
-6.46425e-06
-6.46425e-06
-6.46425e-06
-6.46425e-06
-6.46425e-06
-6.46425e-06
-6.46425e-06
-6.46425e-06
-6.46426e-06
-6.46426e-06
-6.46426e-06
-6.46426e-06
-6.46427e-06
-6.46427e-06
-6.46428e-06
-6.46428e-06
-6.46429e-06
-6.46429e-06
-6.4643e-06
-6.46431e-06
-6.46431e-06
-6.46432e-06
-6.46433e-06
-6.46434e-06
-6.46435e-06
-6.46435e-06
-6.46436e-06
-6.46437e-06
-6.46438e-06
-6.46439e-06
-6.4644e-06
-6.46441e-06
-6.46442e-06
-6.46443e-06
-6.46445e-06
-6.46446e-06
-6.46447e-06
-6.46448e-06
-6.46449e-06
-6.4645e-06
-6.46452e-06
-6.46453e-06
-6.46454e-06
-6.46455e-06
-6.46456e-06
-6.46457e-06
-6.46458e-06
-6.4646e-06
-6.46461e-06
-6.46462e-06
-6.46463e-06
-6.46464e-06
-6.46465e-06
-6.46466e-06
-6.46467e-06
-6.46468e-06
-6.46468e-06
-6.46469e-06
-6.4647e-06
-6.46471e-06
-6.46471e-06
-6.46472e-06
-6.46473e-06
-6.46473e-06
-6.46473e-06
-6.46474e-06
-6.46474e-06
-6.46475e-06
-6.46475e-06
-6.46475e-06
-6.46475e-06
-6.46475e-06
-6.46475e-06
-6.46475e-06
-6.46475e-06
-6.46475e-06
-6.46475e-06
-6.46475e-06
-6.46474e-06
-6.46474e-06
-6.46474e-06
-6.46474e-06
-6.46473e-06
-6.46473e-06
-6.46472e-06
-6.46472e-06
-6.46471e-06
-6.46471e-06
-6.4647e-06
-6.46469e-06
-6.46469e-06
-6.46468e-06
-6.46467e-06
-6.46467e-06
-6.46466e-06
-6.46465e-06
-6.46465e-06
-6.46464e-06
-6.46463e-06
-6.46463e-06
-6.46462e-06
-6.46462e-06
-6.46461e-06
-6.4646e-06
-6.4646e-06
-6.46459e-06
-6.46459e-06
-6.46458e-06
-6.46458e-06
-6.46457e-06
-6.46457e-06
-6.46456e-06
-6.46456e-06
-6.46456e-06
-6.46455e-06
-6.46455e-06
-6.46455e-06
-6.46454e-06
-6.46454e-06
-6.46454e-06
-6.46454e-06
-6.46453e-06
-6.46453e-06
-6.46453e-06
-6.46453e-06
-6.46453e-06
-6.46453e-06
-6.46453e-06
-6.46453e-06
-6.46453e-06
-6.46453e-06
-6.46453e-06
-6.46453e-06
-6.46453e-06
-6.46453e-06
-6.46453e-06
-6.46453e-06
-6.46453e-06
-6.46453e-06
-6.46453e-06
-6.46453e-06
-6.46453e-06
-6.46453e-06
-6.46453e-06
-6.46453e-06
-6.46453e-06
-6.46453e-06
-6.46453e-06
-6.46453e-06
-6.46453e-06
-6.46453e-06
-6.46453e-06
-6.46453e-06
-6.46453e-06
-6.46453e-06
-6.46453e-06
-6.46453e-06
-6.46453e-06
-6.46453e-06
-6.46453e-06
-6.46453e-06
-6.46453e-06
-6.46453e-06
-6.46453e-06
-6.46453e-06
-6.46453e-06
-6.46453e-06
-6.46453e-06
-6.46453e-06
-6.46453e-06
-6.46454e-06
-6.46454e-06
-6.46454e-06
-6.46454e-06
-6.46454e-06
-6.46454e-06
-6.46454e-06
-6.46454e-06
-6.46454e-06
-6.46455e-06
-6.46455e-06
-6.46455e-06
-6.46455e-06
-6.46455e-06
-6.46455e-06
-6.46455e-06
-6.46455e-06
-6.46455e-06
-6.46456e-06
-6.46456e-06
-6.46456e-06
-6.46456e-06
-6.46456e-06
-6.46456e-06
-6.46456e-06
-6.46456e-06
-6.46455e-06
-6.46455e-06
-6.46455e-06
-6.46455e-06
-6.46454e-06
-6.46454e-06
-6.46454e-06
-6.46453e-06
-6.46453e-06
-6.46452e-06
-6.46451e-06
-6.46451e-06
-6.4645e-06
-6.46449e-06
-6.46448e-06
-6.46447e-06
-6.46446e-06
-6.46445e-06
-6.46444e-06
-6.46442e-06
-6.46441e-06
-6.4644e-06
-6.46438e-06
-6.46437e-06
-6.46435e-06
-6.46433e-06
-6.46432e-06
-6.4643e-06
-6.46428e-06
-6.46426e-06
-6.46425e-06
-6.46423e-06
-6.46421e-06
-6.46419e-06
-6.46417e-06
-6.46415e-06
-6.46413e-06
-6.46411e-06
-6.4641e-06
-6.46408e-06
-6.46406e-06
-6.46404e-06
-6.46403e-06
-6.46401e-06
-6.46399e-06
-6.46398e-06
-6.46396e-06
-6.46395e-06
-6.46394e-06
-6.46393e-06
-6.46391e-06
-6.4639e-06
-6.4639e-06
-6.46389e-06
-6.46388e-06
-6.46387e-06
-6.46387e-06
-6.46386e-06
-6.46386e-06
-6.46385e-06
-6.46385e-06
-6.46385e-06
-6.46385e-06
-6.46385e-06
-6.46385e-06
-6.46385e-06
-6.46386e-06
-6.46386e-06
-6.46386e-06
-6.46387e-06
-6.46387e-06
-6.46387e-06
-6.46388e-06
-6.46388e-06
-6.46389e-06
-6.46389e-06
-6.46389e-06
-6.4639e-06
-6.4639e-06
-6.4639e-06
-6.46391e-06
-6.46391e-06
-6.46391e-06
-6.46391e-06
-6.46391e-06
-6.46391e-06
-6.46391e-06
-6.4639e-06
-6.4639e-06
-6.4639e-06
-6.46389e-06
-6.46389e-06
-6.46388e-06
-6.46387e-06
-6.46386e-06
-6.46385e-06
-6.46384e-06
-6.46383e-06
-6.46382e-06
-6.46381e-06
-6.4638e-06
-6.46379e-06
-6.46378e-06
-6.46377e-06
-6.46375e-06
-6.46374e-06
-6.46373e-06
-6.46372e-06
-6.4637e-06
-6.46369e-06
-6.46368e-06
-6.46367e-06
-6.46366e-06
-6.46365e-06
-6.46364e-06
-6.46363e-06
-6.46363e-06
-6.46362e-06
-6.46361e-06
-6.46361e-06
-6.4636e-06
-6.4636e-06
-6.4636e-06
-6.46359e-06
-6.46359e-06
-6.46359e-06
-6.46359e-06
-6.46359e-06
-6.46359e-06
-6.46359e-06
-6.46359e-06
-6.4636e-06
-6.4636e-06
-6.4636e-06
-6.4636e-06
-6.4636e-06
-6.4636e-06
-6.4636e-06
-6.4636e-06
-6.4636e-06
-6.4636e-06
-6.4636e-06
-6.4636e-06
-6.46359e-06
-6.46359e-06
-6.46358e-06
-6.46357e-06
-6.46356e-06
-6.46355e-06
-6.46354e-06
-6.46352e-06
-6.4635e-06
-6.46348e-06
-6.46346e-06
-6.46344e-06
-6.46341e-06
-6.46338e-06
-6.46335e-06
-6.46332e-06
-6.46328e-06
-6.46325e-06
-6.4632e-06
-6.46316e-06
-6.46312e-06
-6.46307e-06
-6.46303e-06
-6.46298e-06
-6.46292e-06
-6.46287e-06
-6.46282e-06
-6.46276e-06
-6.46271e-06
-6.46265e-06
-6.46259e-06
-6.46253e-06
-6.46247e-06
-6.46241e-06
-6.46235e-06
-6.46229e-06
-6.46224e-06
-6.46218e-06
-6.46212e-06
-6.46207e-06
-6.46201e-06
-6.46196e-06
-6.46191e-06
-6.46186e-06
-6.46181e-06
-6.46177e-06
-6.46173e-06
-6.46169e-06
-6.46165e-06
-6.46162e-06
-6.46159e-06
-6.46156e-06
-6.46153e-06
-6.46151e-06
-6.46149e-06
-6.46148e-06
-6.46147e-06
-6.46146e-06
-6.46146e-06
-6.46145e-06
-6.46146e-06
-6.46146e-06
-6.46147e-06
-6.46148e-06
-6.46149e-06
-6.4615e-06
-6.46152e-06
-6.46154e-06
-6.46156e-06
-6.46158e-06
-6.46161e-06
-6.46163e-06
-6.46166e-06
-6.46169e-06
-6.46172e-06
-6.46175e-06
-6.46177e-06
-6.4618e-06
-6.46183e-06
-6.46186e-06
-6.46189e-06
-6.46192e-06
-6.46195e-06
-6.46197e-06
-6.462e-06
-6.46203e-06
-6.46205e-06
-6.46207e-06
-6.46209e-06
-6.46211e-06
-6.46213e-06
-6.46215e-06
-6.46217e-06
-6.46218e-06
-6.46219e-06
-6.4622e-06
-6.46221e-06
-6.46221e-06
-6.46222e-06
-6.46222e-06
-6.46222e-06
-6.46221e-06
-6.4622e-06
-6.46219e-06
-6.46218e-06
-6.46216e-06
-6.46214e-06
-6.46212e-06
-6.46209e-06
-6.46206e-06
-6.46202e-06
-6.46199e-06
-6.46194e-06
-6.4619e-06
-6.46185e-06
-6.46179e-06
-6.46174e-06
-6.46167e-06
-6.46161e-06
-6.46154e-06
-6.46146e-06
-6.46139e-06
-6.46131e-06
-6.46123e-06
-6.46114e-06
-6.46105e-06
-6.46096e-06
-6.46087e-06
-6.46078e-06
-6.46068e-06
-6.46059e-06
-6.46049e-06
-6.4604e-06
-6.4603e-06
-6.4602e-06
-6.46011e-06
-6.46001e-06
-6.45992e-06
-6.45983e-06
-6.45974e-06
-6.45965e-06
-6.45956e-06
-6.45947e-06
-6.45939e-06
-6.45931e-06
-6.45924e-06
-6.45916e-06
-6.45909e-06
-6.45902e-06
-6.45896e-06
-6.4589e-06
-6.45884e-06
-6.45878e-06
-6.45873e-06
-6.45868e-06
-6.45864e-06
-6.4586e-06
-6.45857e-06
-6.45853e-06
-6.45851e-06
-6.45849e-06
-6.45847e-06
-6.45846e-06
-6.45845e-06
-6.45844e-06
-6.45844e-06
-6.45844e-06
-6.45845e-06
-6.45846e-06
-6.45847e-06
-6.45848e-06
-6.4585e-06
-6.45851e-06
-6.45853e-06
-6.45854e-06
-6.45855e-06
-6.45855e-06
-6.45856e-06
-6.45855e-06
-6.45854e-06
-6.45852e-06
-6.4585e-06
-6.45846e-06
-6.45841e-06
-6.45836e-06
-6.45829e-06
-6.45821e-06
-6.45813e-06
-6.45803e-06
-6.45793e-06
-6.45781e-06
-6.45769e-06
-6.45756e-06
-6.45743e-06
-6.4573e-06
-6.45717e-06
-6.45703e-06
-6.4569e-06
-6.45677e-06
-6.45665e-06
-6.45654e-06
-6.45643e-06
-6.45634e-06
-6.45625e-06
-6.45618e-06
-6.45612e-06
-6.45606e-06
-6.45602e-06
-6.45599e-06
-6.45596e-06
-6.45594e-06
-6.45592e-06
-6.4559e-06
-6.45587e-06
-6.45584e-06
-6.45579e-06
-6.45573e-06
-6.45565e-06
-6.45555e-06
-6.45543e-06
-6.45529e-06
-6.45511e-06
-6.4549e-06
-6.45467e-06
-6.45441e-06
-6.45412e-06
-6.4538e-06
-6.45346e-06
-6.4531e-06
-6.45273e-06
-6.45235e-06
-6.45196e-06
-6.45158e-06
-6.45121e-06
-6.45085e-06
-6.45051e-06
-6.45021e-06
-6.44993e-06
-6.4497e-06
-6.44951e-06
-6.44937e-06
-6.44927e-06
-6.44922e-06
-6.44923e-06
-6.44927e-06
-6.44935e-06
-6.44946e-06
-6.44959e-06
-6.44973e-06
-6.44986e-06
-6.44998e-06
-6.45007e-06
-6.45011e-06
-6.45009e-06
-6.44999e-06
-6.44981e-06
-6.44953e-06
-6.44914e-06
-6.44864e-06
-6.44803e-06
-6.44729e-06
-6.44644e-06
-6.44548e-06
-6.4444e-06
-6.44323e-06
-6.44197e-06
-6.44063e-06
-6.43924e-06
-6.43782e-06
-6.43639e-06
-6.43497e-06
-6.43358e-06
-6.43225e-06
-6.43097e-06
-6.42977e-06
-6.42863e-06
-6.42754e-06
-6.42648e-06
-6.42541e-06
-6.42432e-06
-6.4232e-06
-6.42204e-06
-6.42089e-06
-6.41978e-06
-6.4188e-06
-6.41804e-06
-6.41755e-06
-6.41734e-06
-6.41735e-06
-6.41734e-06
-6.41696e-06
-6.41571e-06
-6.41297e-06
-6.40808e-06
-6.40043e-06
-6.38941e-06
-6.37432e-06
-6.35382e-06
-6.32477e-06
-6.27957e-06
-6.20052e-06
-6.04665e-06
-5.72e-06
-4.97484e-06
-3.16555e-06
1.49804e-06
1.422e-05
5.22016e-05
)
;

boundaryField
{
    fixedWall
    {
        type            calculated;
        value           uniform 0;
    }
    outlet
    {
        type            calculated;
        value           uniform 0.000240743;
    }
    defaultFaces
    {
        type            empty;
    }
}


// ************************************************************************* //
