/*--------------------------------*- C++ -*----------------------------------*\
| =========                 |                                                 |
| \\      /  F ield         | OpenFOAM: The Open Source CFD Toolbox           |
|  \\    /   O peration     | Version:  2406                                  |
|   \\  /    A nd           | Website:  www.openfoam.com                      |
|    \\/     M anipulation  |                                                 |
\*---------------------------------------------------------------------------*/
FoamFile
{
    version     2.0;
    format      ascii;
    arch        "LSB;label=32;scalar=64";
    class       volScalarField;
    location    "6.2";
    object      T;
}
// * * * * * * * * * * * * * * * * * * * * * * * * * * * * * * * * * * * * * //

dimensions      [0 0 0 1 0 0 0];

internalField   nonuniform List<scalar> 
1000
(
309.564
339.407
366.52
391.424
414.486
435.98
456.118
475.064
492.952
509.891
525.972
541.273
555.858
569.784
583.1
595.847
608.065
619.785
631.038
641.851
652.248
662.25
671.877
681.148
690.079
698.685
706.981
714.98
722.694
730.134
737.312
744.237
750.918
757.365
763.587
769.59
775.383
780.973
786.367
791.571
796.592
801.435
806.107
810.614
814.959
819.149
823.189
827.083
830.836
834.452
837.936
841.292
844.524
847.635
850.631
853.513
856.287
858.956
861.522
863.989
866.36
868.639
870.829
872.932
874.951
876.889
878.749
880.533
882.245
883.885
885.458
886.964
888.408
889.79
891.113
892.379
893.59
894.748
895.855
896.913
897.923
898.888
899.81
900.689
901.528
902.327
903.09
903.816
904.508
905.167
905.794
906.39
906.958
907.497
908.01
908.497
908.959
909.398
909.814
910.209
910.584
910.939
911.275
911.593
911.894
912.179
912.448
912.703
912.943
913.171
913.385
913.587
913.778
913.958
914.127
914.286
914.436
914.577
914.711
914.836
914.954
915.064
915.168
915.265
915.357
915.442
915.523
915.598
915.668
915.734
915.795
915.853
915.907
915.957
916.004
916.047
916.088
916.126
916.161
916.194
916.224
916.253
916.279
916.303
916.326
916.347
916.367
916.384
916.401
916.416
916.431
916.444
916.456
916.467
916.477
916.486
916.495
916.503
916.51
916.516
916.522
916.528
916.533
916.537
916.541
916.545
916.548
916.551
916.554
916.556
916.558
916.56
916.561
916.563
916.564
916.565
916.566
916.566
916.567
916.567
916.567
916.567
916.567
916.567
916.567
916.567
916.566
916.566
916.566
916.565
916.564
916.564
916.563
916.562
916.561
916.561
916.56
916.559
916.558
916.557
916.556
916.555
916.554
916.553
916.552
916.551
916.55
916.549
916.547
916.546
916.545
916.544
916.543
916.542
916.541
916.539
916.538
916.537
916.536
916.535
916.533
916.532
916.531
916.53
916.529
916.528
916.526
916.525
916.524
916.523
916.522
916.521
916.519
916.518
916.517
916.516
916.515
916.514
916.513
916.512
916.511
916.509
916.508
916.507
916.506
916.505
916.504
916.503
916.502
916.501
916.501
916.5
916.499
916.498
916.497
916.496
916.495
916.494
916.494
916.493
916.492
916.491
916.491
916.49
916.489
916.488
916.488
916.487
916.487
916.486
916.485
916.485
916.484
916.484
916.483
916.483
916.482
916.482
916.481
916.481
916.481
916.48
916.48
916.48
916.479
916.479
916.479
916.479
916.478
916.478
916.478
916.478
916.478
916.478
916.477
916.477
916.477
916.477
916.477
916.477
916.477
916.477
916.477
916.477
916.477
916.478
916.478
916.478
916.478
916.478
916.478
916.478
916.479
916.479
916.479
916.479
916.48
916.48
916.48
916.481
916.481
916.481
916.482
916.482
916.482
916.483
916.483
916.484
916.484
916.484
916.485
916.485
916.486
916.486
916.487
916.487
916.488
916.488
916.489
916.489
916.49
916.49
916.491
916.492
916.492
916.493
916.493
916.494
916.494
916.495
916.496
916.496
916.497
916.497
916.498
916.498
916.499
916.5
916.5
916.501
916.501
916.502
916.502
916.503
916.503
916.504
916.504
916.505
916.505
916.506
916.506
916.507
916.507
916.508
916.508
916.509
916.509
916.509
916.51
916.51
916.511
916.511
916.511
916.511
916.512
916.512
916.512
916.512
916.513
916.513
916.513
916.513
916.513
916.513
916.514
916.514
916.514
916.514
916.514
916.514
916.514
916.514
916.514
916.514
916.514
916.514
916.514
916.514
916.513
916.513
916.513
916.513
916.513
916.513
916.513
916.513
916.512
916.512
916.512
916.512
916.512
916.512
916.511
916.511
916.511
916.511
916.511
916.511
916.511
916.51
916.51
916.51
916.51
916.51
916.51
916.51
916.51
916.509
916.509
916.509
916.509
916.509
916.509
916.509
916.509
916.509
916.509
916.509
916.509
916.509
916.509
916.509
916.509
916.509
916.509
916.51
916.51
916.51
916.51
916.51
916.51
916.51
916.51
916.51
916.511
916.511
916.511
916.511
916.511
916.511
916.511
916.512
916.512
916.512
916.512
916.512
916.512
916.513
916.513
916.513
916.513
916.513
916.513
916.513
916.514
916.514
916.514
916.514
916.514
916.514
916.514
916.514
916.514
916.514
916.515
916.515
916.515
916.515
916.515
916.515
916.515
916.515
916.515
916.515
916.515
916.515
916.515
916.515
916.515
916.515
916.515
916.515
916.515
916.515
916.515
916.515
916.515
916.515
916.515
916.515
916.515
916.515
916.515
916.515
916.515
916.515
916.515
916.515
916.515
916.515
916.515
916.515
916.515
916.515
916.514
916.514
916.514
916.514
916.514
916.514
916.514
916.514
916.513
916.513
916.513
916.513
916.513
916.513
916.512
916.512
916.512
916.512
916.512
916.512
916.511
916.511
916.511
916.511
916.511
916.511
916.51
916.51
916.51
916.51
916.51
916.51
916.51
916.51
916.509
916.509
916.509
916.509
916.509
916.509
916.509
916.509
916.509
916.509
916.509
916.51
916.51
916.51
916.51
916.51
916.51
916.511
916.511
916.511
916.511
916.512
916.512
916.512
916.513
916.513
916.513
916.514
916.514
916.514
916.515
916.515
916.515
916.516
916.516
916.516
916.517
916.517
916.517
916.518
916.518
916.518
916.519
916.519
916.519
916.52
916.52
916.52
916.52
916.52
916.521
916.521
916.521
916.521
916.521
916.521
916.521
916.521
916.521
916.521
916.521
916.521
916.521
916.521
916.521
916.521
916.521
916.52
916.52
916.52
916.52
916.52
916.52
916.52
916.519
916.519
916.519
916.519
916.519
916.519
916.518
916.518
916.518
916.518
916.518
916.518
916.518
916.517
916.517
916.517
916.517
916.517
916.517
916.517
916.517
916.517
916.516
916.516
916.516
916.516
916.516
916.516
916.516
916.515
916.515
916.515
916.515
916.515
916.514
916.514
916.514
916.514
916.513
916.513
916.513
916.512
916.512
916.511
916.511
916.51
916.51
916.51
916.509
916.509
916.508
916.508
916.507
916.507
916.506
916.506
916.505
916.505
916.504
916.504
916.503
916.503
916.502
916.502
916.502
916.501
916.501
916.501
916.501
916.5
916.5
916.5
916.5
916.5
916.5
916.5
916.501
916.501
916.501
916.502
916.502
916.502
916.503
916.504
916.504
916.505
916.506
916.507
916.508
916.508
916.509
916.511
916.512
916.513
916.514
916.515
916.516
916.517
916.519
916.52
916.521
916.522
916.524
916.525
916.526
916.527
916.528
916.529
916.53
916.532
916.533
916.533
916.534
916.535
916.536
916.537
916.537
916.538
916.538
916.539
916.539
916.539
916.54
916.54
916.54
916.54
916.54
916.539
916.539
916.539
916.538
916.538
916.537
916.537
916.536
916.535
916.534
916.533
916.532
916.531
916.53
916.529
916.528
916.527
916.525
916.524
916.523
916.521
916.52
916.518
916.517
916.515
916.514
916.512
916.511
916.509
916.507
916.506
916.504
916.503
916.501
916.5
916.499
916.497
916.496
916.495
916.493
916.492
916.491
916.49
916.489
916.488
916.487
916.487
916.486
916.485
916.485
916.485
916.484
916.484
916.484
916.484
916.484
916.484
916.484
916.485
916.485
916.486
916.486
916.487
916.488
916.488
916.489
916.49
916.491
916.492
916.493
916.494
916.495
916.496
916.498
916.499
916.5
916.501
916.502
916.503
916.504
916.505
916.506
916.507
916.508
916.509
916.51
916.51
916.511
916.512
916.512
916.512
916.512
916.513
916.513
916.513
916.512
916.512
916.512
916.511
916.51
916.51
916.509
916.508
916.507
916.506
916.505
916.504
916.503
916.502
916.501
916.5
916.499
916.498
916.497
916.496
916.496
916.495
916.495
916.494
916.494
916.494
916.494
916.493
916.493
916.493
916.493
916.493
916.493
916.493
916.493
916.492
916.492
916.491
916.491
916.49
916.489
916.488
916.487
916.486
916.484
916.483
916.481
916.48
916.479
916.477
916.476
916.475
916.474
916.474
916.473
916.473
916.473
916.474
916.475
916.476
916.477
916.479
916.481
916.483
916.486
916.488
916.491
916.493
916.495
916.497
916.499
916.5
916.501
916.501
916.501
916.5
916.498
916.496
916.493
916.489
916.485
916.481
916.476
916.47
916.465
916.46
916.455
916.45
916.445
916.441
916.438
916.436
916.435
916.434
916.435
916.437
916.44
916.443
916.448
916.453
916.459
916.466
916.472
916.479
916.485
916.49
916.495
916.499
916.503
916.505
916.505
916.504
916.501
916.494
916.484
916.468
916.446
916.418
916.382
916.338
916.287
916.231
916.169
916.104
916.034
915.96
915.88
915.798
915.728
915.713
915.872
916.496
918.286
922.772
932.647
951.125
)
;

boundaryField
{
    fixedWall
    {
        type            fixedValue;
        value           uniform 293;
    }
    outlet
    {
        type            inletOutlet;
        inletValue      uniform 293;
        value           uniform 745.298;
    }
    defaultFaces
    {
        type            empty;
    }
}


// ************************************************************************* //
