/*--------------------------------*- C++ -*----------------------------------*\
| =========                 |                                                 |
| \\      /  F ield         | OpenFOAM: The Open Source CFD Toolbox           |
|  \\    /   O peration     | Version:  2406                                  |
|   \\  /    A nd           | Website:  www.openfoam.com                      |
|    \\/     M anipulation  |                                                 |
\*---------------------------------------------------------------------------*/
FoamFile
{
    version     2.0;
    format      ascii;
    arch        "LSB;label=32;scalar=64";
    class       volScalarField;
    location    "11.4";
    object      Qdot;
}
// * * * * * * * * * * * * * * * * * * * * * * * * * * * * * * * * * * * * * //

dimensions      [1 -1 -3 0 0 0 0];

internalField   nonuniform List<scalar> 
1000
(
-9.50232e-19
-2.15199e-17
-2.67183e-16
-2.15457e-15
5.9021e-09
2.5259e-08
9.82688e-08
3.16879e-07
8.65851e-07
2.12141e-06
4.77138e-06
9.87936e-06
1.91169e-05
3.48483e-05
6.03051e-05
9.96815e-05
0.000158244
0.000242316
0.000359267
0.000517434
0.000725957
0.000994601
0.00133349
0.00175288
0.00226279
0.00287281
0.00359171
0.00442724
0.00538584
0.00647244
0.00769032
0.00904093
0.0105239
0.0121369
0.0138759
0.0157349
0.0177063
0.0197809
0.0219483
0.0241968
0.0265138
0.028886
0.0312995
0.0337402
0.0361941
0.038647
0.0410854
0.0434962
0.0458668
0.0481856
0.0504419
0.0526259
0.0547288
0.0567432
0.0586625
0.0604812
0.0621951
0.063801
0.0652967
0.0666809
0.0679534
0.0691145
0.0701657
0.0711088
0.0719465
0.0726818
0.0733183
0.07386
0.0743111
0.0746761
0.0749598
0.0751669
0.0753024
0.0753711
0.075378
0.0753278
0.0752255
0.0750755
0.0748824
0.0746505
0.0743841
0.074087
0.0737631
0.073416
0.073049
0.0726653
0.0722679
0.0718596
0.0714428
0.07102
0.0705933
0.0701648
0.0697362
0.0693092
0.0688853
0.0684658
0.068052
0.0676449
0.0672454
0.0668543
0.0664725
0.0661004
0.0657386
0.0653875
0.0650476
0.064719
0.0644019
0.0640966
0.0638031
0.0635215
0.0632517
0.0629937
0.0627475
0.0625129
0.0622898
0.0620781
0.0618774
0.0616877
0.0615088
0.0613403
0.061182
0.0610337
0.0608952
0.060766
0.0606461
0.060535
0.0604325
0.0603384
0.0602523
0.0601741
0.0601033
0.0600397
0.0599831
0.0599332
0.0598897
0.0598524
0.059821
0.0597953
0.0597751
0.0597601
0.0597501
0.0597448
0.0597441
0.0597477
0.0597555
0.0597673
0.0597828
0.059802
0.0598245
0.0598503
0.0598792
0.0599111
0.0599457
0.059983
0.0600228
0.060065
0.0601094
0.060156
0.0602046
0.0602551
0.0603074
0.0603615
0.0604172
0.0604744
0.0605328
0.0605928
0.0606541
0.0607166
0.06078
0.0608448
0.0609106
0.0609773
0.061045
0.0611132
0.0611826
0.0612526
0.0613234
0.0613949
0.0614669
0.0615396
0.0616128
0.0616866
0.0617608
0.0618355
0.0619107
0.0619863
0.0620623
0.0621387
0.0622154
0.0622924
0.0623698
0.0624471
0.0625251
0.0626032
0.0626817
0.06276
0.0628389
0.0629181
0.0629974
0.0630769
0.0631565
0.0632364
0.0633165
0.0633967
0.0634771
0.0635576
0.0636384
0.0637188
0.0637999
0.063881
0.0639623
0.0640437
0.0641252
0.0642068
0.0642886
0.0643705
0.0644525
0.0645346
0.0646169
0.0646993
0.0647818
0.0648644
0.0649471
0.06503
0.0651129
0.065196
0.0652792
0.0653625
0.065446
0.0655295
0.0656132
0.065697
0.0657809
0.065865
0.0659492
0.0660335
0.0661179
0.0662024
0.0662871
0.0663719
0.0664568
0.0665416
0.0666268
0.0667121
0.0667975
0.0668831
0.0669688
0.0670546
0.0671405
0.0672265
0.0673127
0.0673991
0.0674855
0.0675721
0.0676588
0.0677457
0.0678327
0.0679198
0.0680071
0.0680945
0.0681818
0.0682691
0.068357
0.068445
0.0685332
0.0686215
0.0687099
0.0687985
0.0688872
0.068976
0.069065
0.0691541
0.0692434
0.0693328
0.0694224
0.0695121
0.069602
0.069692
0.0697822
0.0698725
0.069963
0.0700536
0.0701444
0.0702353
0.0703264
0.0704176
0.070509
0.0706006
0.0706923
0.0707842
0.0708762
0.0709684
0.0710608
0.0711533
0.071246
0.0713388
0.0714318
0.0715247
0.0716179
0.0717109
0.0718046
0.0718984
0.0719924
0.0720865
0.0721808
0.0722753
0.07237
0.0724648
0.0725598
0.072655
0.0727503
0.0728459
0.0729416
0.0730375
0.0731335
0.0732298
0.0733262
0.0734228
0.0735196
0.0736163
0.0737134
0.0738108
0.0739083
0.074006
0.0741038
0.0742019
0.0743001
0.0743985
0.0744971
0.0745959
0.0746948
0.074794
0.0748934
0.0749929
0.0750926
0.0751925
0.0752927
0.075393
0.0754935
0.0755942
0.0756951
0.0757962
0.0758975
0.0759989
0.0761006
0.0762025
0.0763046
0.0764069
0.0765094
0.0766121
0.076715
0.0768182
0.0769215
0.077025
0.0771288
0.0772327
0.0773369
0.0774412
0.0775458
0.0776506
0.0777556
0.0778608
0.0779663
0.0780719
0.0781778
0.0782839
0.0783902
0.0784967
0.0786035
0.0787104
0.0788176
0.078925
0.0790326
0.0791405
0.0792485
0.0793568
0.0794654
0.0795741
0.0796831
0.0797923
0.0799017
0.0800113
0.0801212
0.0802313
0.0803417
0.0804522
0.080563
0.0806741
0.0807853
0.0808968
0.0810086
0.0811205
0.0812327
0.0813452
0.0814579
0.0815708
0.0816839
0.0817973
0.0819109
0.0820248
0.0821389
0.0822532
0.0823678
0.0824826
0.0825977
0.082713
0.0828285
0.0829443
0.0830603
0.0831766
0.0832931
0.0834099
0.0835269
0.0836442
0.0837617
0.0838794
0.0839974
0.0841157
0.0842342
0.0843529
0.0844719
0.0845912
0.0847107
0.0848305
0.0849505
0.0850707
0.0851912
0.085312
0.085433
0.0855543
0.0856759
0.0857977
0.0859197
0.086042
0.0861646
0.0862874
0.0864105
0.0865339
0.0866575
0.0867814
0.0869055
0.0870299
0.0871546
0.0872795
0.0874047
0.0875302
0.0876559
0.0877819
0.0879082
0.0880348
0.0881616
0.0882887
0.0884161
0.0885437
0.0886716
0.0887998
0.0889283
0.089057
0.089186
0.0893153
0.0894449
0.0895748
0.0897049
0.0898353
0.089966
0.090097
0.0902283
0.0903599
0.0904917
0.0906238
0.0907563
0.090889
0.091022
0.0911553
0.0912889
0.0914228
0.091557
0.0916914
0.0918262
0.0919613
0.0920967
0.0922323
0.0923683
0.0925046
0.0926411
0.092778
0.0929152
0.0930527
0.0931905
0.0933286
0.093467
0.0936057
0.0937447
0.093884
0.0940237
0.0941636
0.0943039
0.0944445
0.0945854
0.0947266
0.0948682
0.09501
0.0951522
0.0952947
0.0954375
0.0955806
0.0957241
0.0958679
0.096012
0.0961564
0.0963012
0.0964463
0.0965917
0.0967375
0.0968835
0.09703
0.0971767
0.0973238
0.0974712
0.0976189
0.097767
0.0979155
0.0980642
0.0982133
0.0983628
0.0985125
0.0986627
0.0988131
0.098964
0.0991151
0.0992666
0.0994185
0.0995707
0.0997232
0.0998761
0.100029
0.100183
0.100337
0.100491
0.100646
0.100801
0.100956
0.101112
0.101268
0.101425
0.101581
0.101739
0.101896
0.102054
0.102212
0.102371
0.10253
0.102689
0.102849
0.103009
0.10317
0.10333
0.103492
0.103653
0.103815
0.103977
0.10414
0.104303
0.104467
0.104631
0.104795
0.10496
0.105125
0.10529
0.105456
0.105622
0.105789
0.105955
0.106123
0.106291
0.106459
0.106627
0.106796
0.106966
0.107135
0.107305
0.107476
0.107647
0.107818
0.10799
0.108162
0.108335
0.108508
0.108681
0.108855
0.109029
0.109204
0.109379
0.109555
0.109731
0.109907
0.110084
0.110261
0.110439
0.110617
0.110795
0.110974
0.111153
0.111333
0.111513
0.111694
0.111875
0.112057
0.112239
0.112421
0.112604
0.112788
0.112972
0.113156
0.113341
0.113526
0.113711
0.113898
0.114084
0.114271
0.114459
0.114647
0.114834
0.115022
0.115211
0.115401
0.115592
0.115782
0.115974
0.116166
0.116358
0.116551
0.116744
0.116937
0.117132
0.117326
0.117521
0.117717
0.117913
0.11811
0.118307
0.118505
0.118703
0.118901
0.119101
0.1193
0.1195
0.119701
0.119902
0.120104
0.120306
0.120509
0.120712
0.120916
0.12112
0.121325
0.12153
0.121736
0.121942
0.122149
0.122356
0.122564
0.122773
0.122982
0.123191
0.123401
0.123612
0.123823
0.124034
0.124247
0.124459
0.124673
0.124885
0.125099
0.125314
0.125529
0.125745
0.125961
0.126178
0.126396
0.126614
0.126833
0.127052
0.127272
0.127492
0.127713
0.127934
0.128156
0.128379
0.128602
0.128826
0.12905
0.129275
0.129501
0.129727
0.129953
0.13018
0.130408
0.130637
0.130866
0.131095
0.131325
0.131556
0.131787
0.132019
0.132252
0.132485
0.132719
0.132953
0.133188
0.133424
0.13366
0.133897
0.134134
0.134372
0.134611
0.13485
0.13509
0.135331
0.135572
0.135814
0.136057
0.1363
0.136544
0.136788
0.137034
0.13728
0.137526
0.137773
0.138021
0.13827
0.138519
0.138769
0.13902
0.139271
0.139523
0.139776
0.14003
0.140283
0.140537
0.140792
0.141048
0.141303
0.141561
0.141819
0.142078
0.142338
0.142598
0.142859
0.143121
0.143384
0.143647
0.143911
0.144176
0.144442
0.144708
0.144975
0.145243
0.145511
0.145781
0.146051
0.146321
0.146593
0.146865
0.147139
0.147412
0.147687
0.147963
0.148239
0.148516
0.148794
0.149072
0.149351
0.149632
0.149913
0.150194
0.150477
0.15076
0.151044
0.151329
0.151614
0.151901
0.152188
0.152476
0.152765
0.153054
0.153345
0.153636
0.153928
0.15422
0.154514
0.154808
0.155103
0.155399
0.155696
0.155993
0.156292
0.156591
0.156891
0.157191
0.157493
0.157795
0.158098
0.158402
0.158707
0.159012
0.159319
0.159626
0.159934
0.160243
0.160553
0.160863
0.161175
0.161487
0.161801
0.162115
0.16243
0.162746
0.163063
0.163381
0.163701
0.164021
0.164342
0.164665
0.164989
0.165314
0.165641
0.165969
0.166298
0.166629
0.166962
0.167296
0.167633
0.167971
0.168312
0.168655
0.169
0.169348
0.169699
0.170053
0.17041
0.170771
0.171135
0.171504
0.171878
0.172256
0.172639
0.173028
0.173423
0.173825
0.174233
0.17465
0.175074
0.175508
0.175951
0.176405
0.17687
0.177347
0.177837
0.178341
0.17886
0.179395
0.179948
0.180519
0.181111
0.181724
0.18236
0.183021
0.183709
0.184425
0.185171
0.185949
0.186762
0.187612
0.188501
0.189431
0.190406
0.191428
0.1925
0.193625
0.194805
0.196046
0.197348
0.198718
0.200157
0.201669
0.203259
0.204931
0.206688
0.208534
0.210475
0.212513
0.214654
0.216902
0.21926
0.221734
0.224328
0.227045
0.229889
0.232865
0.235976
0.239225
0.242614
0.246148
0.249826
0.253651
0.257623
0.261742
0.266007
0.270415
0.274963
0.279647
0.28446
0.289395
0.294442
0.299589
0.304822
0.310126
0.315482
0.320869
0.326262
0.331635
0.336957
0.342194
0.347311
0.352266
0.357015
0.361513
0.365708
0.369548
0.372975
0.375932
0.378359
0.380192
0.38137
0.38183
0.381511
0.380353
0.378301
0.375302
0.371312
0.366292
0.360213
0.353056
0.344813
0.335491
0.325109
0.313703
0.301324
0.288041
0.273937
0.259113
0.243684
0.227779
0.211539
0.195114
0.178661
0.162339
0.146306
0.130717
0.115717
0.10144
0.0880024
0.0755027
0.0640171
0.0536762
0.0444357
0.0361899
0.0290251
0.0228985
0.0177482
0.0134968
0.0100552
0.00732682
0.00521212
0.00361248
0.00243392
0.00159008
0.00100442
0.000611537
0.000357591
0.000200012
0.000106528
5.37482e-05
2.55381e-05
1.13522e-05
4.68386e-06
1.7788e-06
6.15016e-07
1.91773e-07
5.34881e-08
1.34062e-08
3.06656e-09
3.68981e-10
-5.612e-10
-1.3988e-17
-1.076e-18
-1.61761e-10
0
1.74675e-21
)
;

boundaryField
{
    fixedWall
    {
        type            calculated;
        value           uniform 0;
    }
    outlet
    {
        type            calculated;
        value           uniform 0;
    }
    defaultFaces
    {
        type            empty;
    }
}


// ************************************************************************* //
