/*--------------------------------*- C++ -*----------------------------------*\
| =========                 |                                                 |
| \\      /  F ield         | OpenFOAM: The Open Source CFD Toolbox           |
|  \\    /   O peration     | Version:  2406                                  |
|   \\  /    A nd           | Website:  www.openfoam.com                      |
|    \\/     M anipulation  |                                                 |
\*---------------------------------------------------------------------------*/
FoamFile
{
    version     2.0;
    format      ascii;
    arch        "LSB;label=32;scalar=64";
    class       volScalarField;
    location    "2.3";
    object      CO2;
}
// * * * * * * * * * * * * * * * * * * * * * * * * * * * * * * * * * * * * * //

dimensions      [0 0 0 0 0 0 0];

internalField   nonuniform List<scalar> 
1000
(
0.0709257
0.0709257
0.0709257
0.0709257
0.0709257
0.0709257
0.0709257
0.0709257
0.0709257
0.0709257
0.0709257
0.0709257
0.0709258
0.0709258
0.0709258
0.0709258
0.0709258
0.0709258
0.0709258
0.0709259
0.0709259
0.0709259
0.0709259
0.0709259
0.0709259
0.0709259
0.070926
0.070926
0.070926
0.070926
0.070926
0.070926
0.070926
0.0709261
0.0709261
0.0709261
0.0709261
0.0709261
0.0709261
0.0709261
0.0709261
0.0709261
0.0709261
0.0709261
0.0709261
0.0709261
0.0709262
0.0709262
0.0709262
0.0709262
0.0709262
0.0709262
0.0709262
0.0709262
0.0709262
0.0709262
0.0709262
0.0709262
0.0709262
0.0709262
0.0709262
0.0709262
0.0709262
0.0709262
0.0709262
0.0709262
0.0709262
0.0709261
0.0709261
0.0709261
0.0709261
0.0709261
0.0709261
0.0709261
0.0709261
0.0709261
0.0709261
0.0709261
0.0709261
0.0709261
0.0709261
0.0709261
0.0709261
0.0709261
0.0709261
0.0709261
0.0709261
0.0709261
0.0709261
0.0709261
0.0709261
0.0709261
0.0709261
0.0709261
0.0709261
0.0709261
0.0709261
0.0709261
0.0709261
0.0709261
0.0709261
0.070926
0.070926
0.070926
0.070926
0.070926
0.070926
0.070926
0.070926
0.070926
0.070926
0.070926
0.070926
0.070926
0.070926
0.070926
0.070926
0.070926
0.070926
0.070926
0.070926
0.070926
0.070926
0.070926
0.070926
0.070926
0.070926
0.070926
0.0709259
0.0709259
0.0709259
0.0709259
0.0709259
0.0709259
0.0709259
0.0709259
0.0709259
0.0709259
0.0709259
0.0709259
0.0709259
0.0709259
0.0709259
0.0709259
0.0709259
0.0709259
0.0709259
0.0709259
0.0709259
0.0709259
0.0709258
0.0709258
0.0709258
0.0709258
0.0709258
0.0709258
0.0709258
0.0709258
0.0709258
0.0709258
0.0709258
0.0709258
0.0709258
0.0709258
0.0709258
0.0709258
0.0709258
0.0709258
0.0709257
0.0709257
0.0709257
0.0709257
0.0709257
0.0709257
0.0709257
0.0709257
0.0709257
0.0709257
0.0709257
0.0709257
0.0709257
0.0709257
0.0709257
0.0709256
0.0709256
0.0709256
0.0709256
0.0709256
0.0709256
0.0709256
0.0709256
0.0709256
0.0709256
0.0709256
0.0709256
0.0709256
0.0709255
0.0709255
0.0709255
0.0709255
0.0709255
0.0709255
0.0709255
0.0709255
0.0709255
0.0709255
0.0709255
0.0709254
0.0709254
0.0709254
0.0709254
0.0709254
0.0709254
0.0709254
0.0709254
0.0709254
0.0709254
0.0709253
0.0709253
0.0709253
0.0709253
0.0709253
0.0709253
0.0709253
0.0709253
0.0709252
0.0709252
0.0709252
0.0709252
0.0709252
0.0709252
0.0709252
0.0709251
0.0709251
0.0709251
0.0709251
0.0709251
0.0709251
0.0709251
0.070925
0.070925
0.070925
0.070925
0.070925
0.070925
0.0709249
0.0709249
0.0709249
0.0709249
0.0709249
0.0709248
0.0709248
0.0709248
0.0709248
0.0709248
0.0709247
0.0709247
0.0709247
0.0709247
0.0709247
0.0709246
0.0709246
0.0709246
0.0709246
0.0709245
0.0709245
0.0709245
0.0709244
0.0709244
0.0709244
0.0709244
0.0709243
0.0709243
0.0709243
0.0709242
0.0709242
0.0709242
0.0709241
0.0709241
0.070924
0.070924
0.070924
0.0709239
0.0709239
0.0709238
0.0709238
0.0709237
0.0709237
0.0709237
0.0709236
0.0709235
0.0709235
0.0709234
0.0709234
0.0709233
0.0709233
0.0709232
0.0709231
0.0709231
0.070923
0.0709229
0.0709228
0.0709228
0.0709227
0.0709226
0.0709225
0.0709224
0.0709223
0.0709222
0.0709221
0.070922
0.0709219
0.0709218
0.0709216
0.0709215
0.0709214
0.0709212
0.0709211
0.0709209
0.0709207
0.0709206
0.0709204
0.0709202
0.0709199
0.0709197
0.0709195
0.0709192
0.0709189
0.0709186
0.0709183
0.0709179
0.0709175
0.0709171
0.0709166
0.0709161
0.0709155
0.0709149
0.0709142
0.0709134
0.0709126
0.0709116
0.0709105
0.0709092
0.0709078
0.0709061
0.0709041
0.0709017
0.0708987
0.0708951
0.0708902
0.0708837
0.0708747
0.0708617
0.0708422
0.0708103
0.0707499
0.0706127
0.0702437
0.0691178
0.0653337
0.0497142
0.0254291
0.0126816
0.00628953
0.00312145
0.00155187
0.000772434
0.000384642
0.000191538
9.53637e-05
4.74729e-05
2.36309e-05
1.17633e-05
5.85647e-06
2.91634e-06
1.45265e-06
7.23822e-07
3.60806e-07
1.79934e-07
8.97847e-08
4.48408e-08
2.24269e-08
1.12472e-08
5.63712e-09
2.86489e-09
1.46655e-09
8.29913e-10
5.70846e-10
3.42659e-10
2.1708e-10
1.6686e-10
1.40635e-10
1.19349e-10
1.07089e-10
1.0043e-10
9.72956e-11
9.57721e-11
9.43917e-11
9.38321e-11
9.35189e-11
9.33323e-11
9.3171e-11
9.30955e-11
9.30561e-11
9.30306e-11
9.30102e-11
9.29995e-11
9.29941e-11
9.29915e-11
9.29902e-11
9.29894e-11
9.2989e-11
9.29889e-11
9.29889e-11
9.29889e-11
9.29891e-11
9.29892e-11
9.29894e-11
9.29895e-11
9.29896e-11
9.29898e-11
9.29899e-11
9.29901e-11
9.29902e-11
9.29905e-11
9.29906e-11
9.29908e-11
9.2991e-11
9.29912e-11
9.29914e-11
9.29916e-11
9.29917e-11
9.29919e-11
9.2992e-11
9.29922e-11
9.29924e-11
9.29925e-11
9.29927e-11
9.29929e-11
9.29931e-11
9.29933e-11
9.29934e-11
9.29936e-11
9.29938e-11
9.2994e-11
9.29941e-11
9.29943e-11
9.29945e-11
9.29946e-11
9.29948e-11
9.2995e-11
9.29952e-11
9.29953e-11
9.29954e-11
9.29957e-11
9.29959e-11
9.29961e-11
9.29963e-11
9.29963e-11
9.29965e-11
9.29967e-11
9.29969e-11
9.2997e-11
9.29973e-11
9.29974e-11
9.29975e-11
9.29977e-11
9.29979e-11
9.29981e-11
9.29982e-11
9.29985e-11
9.29986e-11
9.29988e-11
9.29989e-11
9.29991e-11
9.29993e-11
9.29995e-11
9.29996e-11
9.29998e-11
9.3e-11
9.30001e-11
9.30003e-11
9.30004e-11
9.30006e-11
9.30008e-11
9.30011e-11
9.30013e-11
9.30014e-11
9.30016e-11
9.30018e-11
9.30019e-11
9.30021e-11
9.30023e-11
9.30025e-11
9.30026e-11
9.30027e-11
9.30029e-11
9.30031e-11
9.30033e-11
9.30034e-11
9.30037e-11
9.30038e-11
9.30039e-11
9.30042e-11
9.30043e-11
9.30045e-11
9.30046e-11
9.30048e-11
9.3005e-11
9.30052e-11
9.30054e-11
9.30055e-11
9.30057e-11
9.30058e-11
9.30061e-11
9.30062e-11
9.30064e-11
9.30066e-11
9.30067e-11
9.30069e-11
9.30071e-11
9.30073e-11
9.30075e-11
9.30076e-11
9.30077e-11
9.3008e-11
9.30081e-11
9.30083e-11
9.30085e-11
9.30087e-11
9.30088e-11
9.3009e-11
9.30092e-11
9.30093e-11
9.30095e-11
9.30097e-11
9.30099e-11
9.30101e-11
9.30103e-11
9.30105e-11
9.30107e-11
9.30109e-11
9.3011e-11
9.30112e-11
9.30113e-11
9.30115e-11
9.30117e-11
9.30119e-11
9.3012e-11
9.30122e-11
9.30124e-11
9.30126e-11
9.30128e-11
9.3013e-11
9.30132e-11
9.30133e-11
9.30135e-11
9.30136e-11
9.30139e-11
9.30141e-11
9.30142e-11
9.30144e-11
9.30146e-11
9.30147e-11
9.30149e-11
9.30151e-11
9.30153e-11
9.30155e-11
9.30156e-11
9.30158e-11
9.3016e-11
9.30162e-11
9.30163e-11
9.30166e-11
9.30167e-11
9.3017e-11
9.30171e-11
9.30173e-11
9.30175e-11
9.30176e-11
9.30178e-11
9.3018e-11
9.30182e-11
9.30184e-11
9.30185e-11
9.30187e-11
9.30189e-11
9.30191e-11
9.30192e-11
9.30194e-11
9.30195e-11
9.30198e-11
9.302e-11
9.30201e-11
9.30203e-11
9.30205e-11
9.30208e-11
9.30209e-11
9.30212e-11
9.30213e-11
9.30215e-11
9.30217e-11
9.30219e-11
9.30221e-11
9.30223e-11
9.30224e-11
9.30227e-11
9.30229e-11
9.30231e-11
9.30232e-11
9.30234e-11
9.30236e-11
9.30238e-11
9.3024e-11
9.30241e-11
9.30243e-11
9.30245e-11
9.30246e-11
9.30249e-11
9.30251e-11
9.30252e-11
9.30254e-11
9.30256e-11
9.30258e-11
9.30261e-11
9.30262e-11
9.30264e-11
9.30266e-11
9.30267e-11
9.30269e-11
9.30271e-11
9.30273e-11
9.30275e-11
9.30277e-11
9.30278e-11
9.3028e-11
9.30282e-11
9.30284e-11
9.30286e-11
9.30288e-11
9.3029e-11
9.30292e-11
9.30294e-11
9.30296e-11
9.30297e-11
9.30299e-11
9.30302e-11
9.30304e-11
9.30306e-11
9.30308e-11
9.3031e-11
9.30312e-11
9.30314e-11
9.30315e-11
9.30317e-11
9.30318e-11
9.30321e-11
9.30323e-11
9.30325e-11
9.30327e-11
9.30329e-11
9.30331e-11
9.30332e-11
9.30334e-11
9.30336e-11
9.30338e-11
9.3034e-11
9.30341e-11
9.30343e-11
9.30345e-11
9.30347e-11
9.30349e-11
9.30352e-11
9.30354e-11
9.30356e-11
9.30358e-11
9.3036e-11
9.30362e-11
9.30363e-11
9.30365e-11
9.30367e-11
9.30369e-11
9.30371e-11
9.30373e-11
9.30375e-11
9.30377e-11
9.30379e-11
9.30381e-11
9.30382e-11
9.30384e-11
9.30386e-11
9.30388e-11
9.3039e-11
9.30391e-11
9.30394e-11
9.30396e-11
9.30398e-11
9.304e-11
9.30402e-11
9.30404e-11
9.30406e-11
9.30408e-11
9.30409e-11
9.30411e-11
9.30414e-11
9.30416e-11
9.30418e-11
9.30419e-11
9.30422e-11
9.30424e-11
9.30425e-11
9.30428e-11
9.30429e-11
9.30431e-11
9.30433e-11
9.30435e-11
9.30437e-11
9.30439e-11
9.30441e-11
9.30443e-11
9.30444e-11
9.30447e-11
9.30448e-11
9.30451e-11
9.30453e-11
9.30455e-11
9.30457e-11
9.30459e-11
9.3046e-11
9.30463e-11
9.30465e-11
9.30466e-11
9.30468e-11
9.3047e-11
9.30472e-11
9.30474e-11
9.30476e-11
9.30478e-11
9.3048e-11
9.30482e-11
9.30485e-11
9.30486e-11
9.30489e-11
9.3049e-11
9.30492e-11
9.30494e-11
9.30496e-11
9.30498e-11
9.305e-11
9.30502e-11
9.30504e-11
9.30506e-11
9.30508e-11
9.3051e-11
9.30512e-11
9.30514e-11
9.30516e-11
9.30518e-11
9.3052e-11
9.30522e-11
9.30524e-11
9.30526e-11
9.30527e-11
9.3053e-11
9.30532e-11
9.30534e-11
9.30536e-11
9.30537e-11
9.3054e-11
9.30541e-11
9.30544e-11
9.30545e-11
9.30548e-11
9.30549e-11
9.30551e-11
9.30553e-11
9.30555e-11
9.30557e-11
9.30559e-11
9.30562e-11
9.30564e-11
9.30566e-11
9.30567e-11
9.30569e-11
9.30572e-11
9.30574e-11
9.30575e-11
9.30577e-11
9.3058e-11
9.30581e-11
9.30583e-11
9.30585e-11
9.30587e-11
9.30589e-11
9.30591e-11
9.30593e-11
9.30596e-11
9.30598e-11
9.306e-11
9.30602e-11
9.30604e-11
9.30606e-11
9.30608e-11
9.3061e-11
9.30612e-11
9.30615e-11
9.30616e-11
9.30618e-11
9.3062e-11
9.30622e-11
9.30624e-11
9.30626e-11
9.30628e-11
9.30629e-11
9.30632e-11
9.30634e-11
9.30636e-11
9.30637e-11
9.30639e-11
9.30641e-11
9.30643e-11
9.30645e-11
9.30647e-11
9.3065e-11
9.30652e-11
9.30654e-11
9.30656e-11
9.30659e-11
9.30661e-11
9.30663e-11
9.30665e-11
9.30667e-11
9.30669e-11
9.30671e-11
9.30673e-11
9.30675e-11
9.30677e-11
9.30679e-11
9.30681e-11
9.30683e-11
9.30684e-11
9.30686e-11
9.30689e-11
9.3069e-11
9.30692e-11
9.30695e-11
9.30696e-11
9.30698e-11
9.307e-11
9.30702e-11
9.30704e-11
9.30706e-11
9.30708e-11
9.30709e-11
9.30712e-11
9.30715e-11
9.30717e-11
9.30719e-11
9.30721e-11
9.30722e-11
9.30725e-11
9.30726e-11
9.3073e-11
9.30731e-11
9.30733e-11
9.30735e-11
9.30737e-11
9.3074e-11
9.30742e-11
9.30745e-11
9.30746e-11
9.30749e-11
9.30751e-11
9.30753e-11
9.30755e-11
9.30757e-11
9.30759e-11
9.30761e-11
9.30763e-11
9.30765e-11
9.30767e-11
9.30769e-11
9.30772e-11
9.30773e-11
9.30775e-11
9.30777e-11
9.30779e-11
9.30781e-11
9.30783e-11
9.30785e-11
9.30787e-11
9.30789e-11
9.30791e-11
9.30793e-11
9.30794e-11
9.30797e-11
9.30799e-11
9.30801e-11
9.30804e-11
9.30805e-11
9.30807e-11
9.30809e-11
9.30812e-11
9.30814e-11
9.30816e-11
9.30819e-11
9.30821e-11
9.30823e-11
9.30825e-11
9.30827e-11
9.30828e-11
9.3083e-11
9.30832e-11
9.30834e-11
9.30836e-11
9.30838e-11
9.3084e-11
9.30843e-11
9.30845e-11
9.30847e-11
9.3085e-11
9.30851e-11
9.30854e-11
9.30855e-11
9.30858e-11
9.3086e-11
9.30864e-11
9.30865e-11
9.30867e-11
9.3087e-11
9.30871e-11
9.30873e-11
9.30876e-11
9.30878e-11
9.3088e-11
9.30882e-11
9.30884e-11
9.30886e-11
9.30888e-11
9.3089e-11
9.30892e-11
9.30894e-11
9.30897e-11
9.30899e-11
9.309e-11
9.30902e-11
9.30905e-11
9.30907e-11
9.30908e-11
9.3091e-11
9.30913e-11
9.30915e-11
9.30917e-11
9.30919e-11
9.30922e-11
9.30923e-11
9.30926e-11
9.30928e-11
9.3093e-11
9.30933e-11
9.30934e-11
9.30936e-11
9.30939e-11
9.30941e-11
9.30942e-11
9.30945e-11
9.30947e-11
9.30949e-11
9.30952e-11
9.30954e-11
9.30956e-11
9.30958e-11
9.3096e-11
9.30962e-11
9.30964e-11
9.30966e-11
9.30968e-11
9.30971e-11
9.30973e-11
9.30975e-11
9.30977e-11
9.3098e-11
9.30981e-11
9.30984e-11
9.30986e-11
9.30988e-11
9.3099e-11
9.30992e-11
9.30994e-11
9.30997e-11
9.30999e-11
9.31001e-11
9.31003e-11
9.31005e-11
9.31007e-11
9.31009e-11
9.31012e-11
9.31014e-11
9.31016e-11
9.31018e-11
)
;

boundaryField
{
    fixedWall
    {
        type            zeroGradient;
    }
    outlet
    {
        type            inletOutlet;
        inletValue      uniform 0;
        value           uniform 9.31018e-11;
    }
    defaultFaces
    {
        type            empty;
    }
}


// ************************************************************************* //
