/*--------------------------------*- C++ -*----------------------------------*\
| =========                 |                                                 |
| \\      /  F ield         | OpenFOAM: The Open Source CFD Toolbox           |
|  \\    /   O peration     | Version:  2406                                  |
|   \\  /    A nd           | Website:  www.openfoam.com                      |
|    \\/     M anipulation  |                                                 |
\*---------------------------------------------------------------------------*/
FoamFile
{
    version     2.0;
    format      ascii;
    arch        "LSB;label=32;scalar=64";
    class       volScalarField;
    location    "2.3";
    object      O2;
}
// * * * * * * * * * * * * * * * * * * * * * * * * * * * * * * * * * * * * * //

dimensions      [0 0 0 0 0 0 0];

internalField   nonuniform List<scalar> 
1000
(
1.70949e-06
1.70696e-06
1.7026e-06
1.69673e-06
1.6895e-06
1.68099e-06
1.67126e-06
1.66032e-06
1.64821e-06
1.63492e-06
1.6205e-06
1.60495e-06
1.58831e-06
1.57062e-06
1.55195e-06
1.53236e-06
1.51193e-06
1.49075e-06
1.46894e-06
1.44661e-06
1.42388e-06
1.40089e-06
1.37776e-06
1.35463e-06
1.33164e-06
1.3089e-06
1.28653e-06
1.26465e-06
1.24336e-06
1.22274e-06
1.20288e-06
1.18384e-06
1.16568e-06
1.14843e-06
1.13214e-06
1.11681e-06
1.10248e-06
1.08912e-06
1.07676e-06
1.06536e-06
1.05492e-06
1.04541e-06
1.03681e-06
1.02908e-06
1.0222e-06
1.01612e-06
1.01081e-06
1.00624e-06
1.00236e-06
9.99133e-07
9.96528e-07
9.94503e-07
9.93022e-07
9.92051e-07
9.91556e-07
9.91496e-07
9.91842e-07
9.92566e-07
9.93637e-07
9.95029e-07
9.96716e-07
9.98673e-07
1.00088e-06
1.00331e-06
1.00595e-06
1.00877e-06
1.01176e-06
1.01491e-06
1.01821e-06
1.02162e-06
1.02516e-06
1.02879e-06
1.03253e-06
1.03634e-06
1.04024e-06
1.0442e-06
1.04823e-06
1.05232e-06
1.05646e-06
1.06065e-06
1.06488e-06
1.06916e-06
1.07347e-06
1.07777e-06
1.08216e-06
1.08659e-06
1.09105e-06
1.09554e-06
1.10006e-06
1.10461e-06
1.10919e-06
1.1138e-06
1.11843e-06
1.12309e-06
1.12778e-06
1.1325e-06
1.13725e-06
1.14203e-06
1.14684e-06
1.15169e-06
1.15656e-06
1.16146e-06
1.1664e-06
1.17137e-06
1.17637e-06
1.18141e-06
1.18648e-06
1.19159e-06
1.19673e-06
1.20191e-06
1.20712e-06
1.21237e-06
1.21766e-06
1.22298e-06
1.22835e-06
1.23375e-06
1.23919e-06
1.24468e-06
1.2502e-06
1.25577e-06
1.26137e-06
1.26702e-06
1.27272e-06
1.27845e-06
1.28424e-06
1.29007e-06
1.29594e-06
1.30186e-06
1.30783e-06
1.31385e-06
1.31992e-06
1.32605e-06
1.33222e-06
1.33845e-06
1.34471e-06
1.35096e-06
1.35736e-06
1.36383e-06
1.37035e-06
1.37693e-06
1.38357e-06
1.39027e-06
1.39704e-06
1.40387e-06
1.41077e-06
1.41773e-06
1.42476e-06
1.43186e-06
1.43903e-06
1.44627e-06
1.45358e-06
1.46096e-06
1.46843e-06
1.47596e-06
1.48358e-06
1.49127e-06
1.49904e-06
1.50689e-06
1.51482e-06
1.52283e-06
1.53093e-06
1.53911e-06
1.54739e-06
1.55575e-06
1.56411e-06
1.57255e-06
1.58121e-06
1.58994e-06
1.59876e-06
1.60768e-06
1.61668e-06
1.62579e-06
1.63499e-06
1.6443e-06
1.6537e-06
1.66321e-06
1.67283e-06
1.68256e-06
1.69239e-06
1.70235e-06
1.71241e-06
1.7226e-06
1.7329e-06
1.74333e-06
1.75388e-06
1.76456e-06
1.77537e-06
1.78632e-06
1.7974e-06
1.80862e-06
1.81998e-06
1.83148e-06
1.84314e-06
1.85494e-06
1.86689e-06
1.879e-06
1.89127e-06
1.90369e-06
1.91629e-06
1.92904e-06
1.94197e-06
1.95507e-06
1.96835e-06
1.98181e-06
1.99545e-06
2.00927e-06
2.02329e-06
2.0375e-06
2.05191e-06
2.06652e-06
2.08134e-06
2.09636e-06
2.1116e-06
2.12706e-06
2.14275e-06
2.15866e-06
2.17481e-06
2.1912e-06
2.20783e-06
2.22471e-06
2.24185e-06
2.25926e-06
2.27693e-06
2.29487e-06
2.3131e-06
2.33162e-06
2.35043e-06
2.36954e-06
2.38896e-06
2.40869e-06
2.42875e-06
2.44914e-06
2.46986e-06
2.49094e-06
2.51236e-06
2.53415e-06
2.55631e-06
2.57884e-06
2.60176e-06
2.62508e-06
2.6488e-06
2.67294e-06
2.69751e-06
2.72251e-06
2.74795e-06
2.77386e-06
2.80024e-06
2.8271e-06
2.85447e-06
2.88235e-06
2.91076e-06
2.93973e-06
2.96927e-06
2.99941e-06
3.03015e-06
3.06154e-06
3.09358e-06
3.12631e-06
3.15976e-06
3.19393e-06
3.22887e-06
3.2646e-06
3.30114e-06
3.33853e-06
3.37679e-06
3.41595e-06
3.45604e-06
3.49709e-06
3.53913e-06
3.58219e-06
3.62629e-06
3.67148e-06
3.71778e-06
3.76524e-06
3.81389e-06
3.86377e-06
3.91492e-06
3.96739e-06
4.02123e-06
4.07651e-06
4.13327e-06
4.1916e-06
4.25159e-06
4.31272e-06
4.37529e-06
4.44072e-06
4.50804e-06
4.57734e-06
4.64874e-06
4.72234e-06
4.79827e-06
4.87662e-06
4.95751e-06
5.04107e-06
5.12743e-06
5.21672e-06
5.30913e-06
5.40453e-06
5.50241e-06
5.60555e-06
5.71239e-06
5.82323e-06
5.93836e-06
6.05815e-06
6.18248e-06
6.31013e-06
6.44468e-06
6.58487e-06
6.73116e-06
6.88395e-06
7.04369e-06
7.21084e-06
7.38593e-06
7.56954e-06
7.76232e-06
7.96501e-06
8.1785e-06
8.40188e-06
8.63551e-06
8.88632e-06
9.15154e-06
9.43268e-06
9.7313e-06
1.00491e-05
1.03879e-05
1.07501e-05
1.1138e-05
1.15546e-05
1.20033e-05
1.24881e-05
1.30135e-05
1.35848e-05
1.4208e-05
1.489e-05
1.56387e-05
1.64634e-05
1.73749e-05
1.83866e-05
1.95149e-05
2.07755e-05
2.21747e-05
2.37799e-05
2.56127e-05
2.77264e-05
3.01906e-05
3.31014e-05
3.65985e-05
4.08947e-05
4.62278e-05
5.32773e-05
6.27495e-05
7.58998e-05
9.47679e-05
0.000123128
0.000169542
0.000257316
0.000456831
0.000993352
0.00263063
0.00813331
0.0308466
0.0661611
0.084698
0.093993
0.0985999
0.100882
0.102016
0.10258
0.10286
0.103
0.10307
0.103105
0.103122
0.10313
0.103135
0.103137
0.103138
0.103138
0.103139
0.103139
0.103139
0.103139
0.103139
0.103139
0.103139
0.103139
0.103139
0.103139
0.103139
0.103139
0.103139
0.103139
0.103139
0.103139
0.103139
0.103139
0.103139
0.103139
0.103139
0.103139
0.103139
0.103139
0.103139
0.103139
0.103139
0.103139
0.103139
0.103139
0.103139
0.103139
0.103139
0.103139
0.103139
0.103139
0.103139
0.103139
0.103139
0.103139
0.103139
0.103139
0.103139
0.103139
0.103139
0.103139
0.103139
0.103139
0.103139
0.103139
0.103139
0.103139
0.103139
0.103139
0.103139
0.103139
0.103139
0.103139
0.103139
0.103139
0.103139
0.103139
0.103139
0.103139
0.103139
0.103139
0.103139
0.103139
0.103139
0.103139
0.103139
0.103139
0.103139
0.103139
0.103139
0.103139
0.103139
0.103139
0.103139
0.103139
0.103139
0.103139
0.103139
0.103139
0.103139
0.103139
0.103139
0.103139
0.103139
0.103139
0.103139
0.103139
0.103139
0.103139
0.103139
0.103139
0.103139
0.103139
0.103139
0.103139
0.103139
0.103139
0.103139
0.103139
0.103139
0.103139
0.103139
0.103139
0.103139
0.103139
0.103139
0.103139
0.103139
0.103139
0.103139
0.103139
0.103139
0.103139
0.103139
0.103139
0.103139
0.103139
0.103139
0.103139
0.103139
0.103139
0.103139
0.103139
0.103139
0.103139
0.103139
0.103139
0.103139
0.103139
0.103139
0.103139
0.103139
0.103139
0.103139
0.103139
0.103139
0.103139
0.103139
0.103139
0.103139
0.103139
0.103139
0.103139
0.103139
0.103139
0.103139
0.103139
0.103139
0.103139
0.103139
0.103139
0.103139
0.103139
0.103139
0.103139
0.103139
0.103139
0.103139
0.103139
0.103139
0.103139
0.103139
0.103139
0.103139
0.103139
0.103139
0.103139
0.103139
0.103139
0.103139
0.103139
0.103139
0.103139
0.103139
0.103139
0.103139
0.103139
0.103139
0.103139
0.103139
0.103139
0.103139
0.103139
0.103139
0.103139
0.103139
0.103139
0.103139
0.103139
0.103139
0.103139
0.103139
0.103139
0.103139
0.103139
0.103139
0.103139
0.103139
0.103139
0.103139
0.103139
0.103139
0.103139
0.103139
0.103139
0.103139
0.103139
0.103139
0.103139
0.103139
0.103139
0.103139
0.103139
0.103139
0.103139
0.103139
0.103139
0.103139
0.103139
0.103139
0.103139
0.103139
0.103139
0.103139
0.103139
0.103139
0.103139
0.103139
0.103139
0.103139
0.103139
0.103139
0.103139
0.103139
0.103139
0.103139
0.103139
0.103139
0.103139
0.103139
0.103139
0.103139
0.103139
0.103139
0.103139
0.103139
0.103139
0.103139
0.103139
0.103139
0.103139
0.103139
0.103139
0.103139
0.103139
0.103139
0.103139
0.103139
0.103139
0.103139
0.103139
0.103139
0.103139
0.103139
0.103139
0.103139
0.103139
0.103139
0.103139
0.103139
0.103139
0.103139
0.103139
0.103139
0.103139
0.103139
0.103139
0.103139
0.103139
0.103139
0.103139
0.103139
0.103139
0.103139
0.103139
0.103139
0.103139
0.103139
0.103139
0.103139
0.103139
0.103139
0.103139
0.103139
0.103139
0.103139
0.103139
0.103139
0.103139
0.103139
0.103139
0.103139
0.103139
0.103139
0.103139
0.103139
0.103139
0.103139
0.103139
0.103139
0.103139
0.103139
0.103139
0.103139
0.103139
0.103139
0.103139
0.103139
0.103139
0.103139
0.103139
0.103139
0.103139
0.103139
0.103139
0.103139
0.103139
0.103139
0.103139
0.103139
0.103139
0.103139
0.103139
0.103139
0.103139
0.103139
0.103139
0.103139
0.103139
0.103139
0.103139
0.103139
0.103139
0.103139
0.103139
0.103139
0.103139
0.103139
0.103139
0.103139
0.103139
0.103139
0.103139
0.103139
0.103139
0.103139
0.103139
0.103139
0.103139
0.103139
0.103139
0.103139
0.103139
0.103139
0.103139
0.103139
0.103139
0.103139
0.103139
0.103139
0.103139
0.103139
0.103139
0.103139
0.103139
0.103139
0.103139
0.103139
0.103139
0.103139
0.103139
0.103139
0.103139
0.103139
0.103139
0.103139
0.103139
0.103139
0.103139
0.103139
0.103139
0.103139
0.103139
0.103139
0.103139
0.103139
0.103139
0.103139
0.103139
0.103139
0.103139
0.103139
0.103139
0.103139
0.103139
0.103139
0.103139
0.103139
0.103139
0.103139
0.103139
0.103139
0.103139
0.103139
0.103139
0.103139
0.103139
0.103139
0.103139
0.103139
0.103139
0.103139
0.103139
0.103139
0.103139
0.103139
0.103139
0.103139
0.103139
0.103139
0.103139
0.103139
0.103139
0.103139
0.103139
0.103139
0.103139
0.103139
0.103139
0.103139
0.103139
0.103139
0.103139
0.103139
0.103139
0.103139
0.103139
0.103139
0.103139
0.103139
0.103139
0.103139
0.103139
0.103139
0.103139
0.103139
0.103139
0.103139
0.103139
0.103139
0.103139
0.103139
0.103139
0.103139
0.103139
0.103139
0.103139
0.103139
0.103139
0.103139
0.103139
0.103139
0.103139
0.103139
0.103139
0.103139
0.103139
0.103139
0.103139
0.103139
0.103139
0.103139
0.103139
0.103139
0.103139
0.103139
0.103139
0.103139
0.103139
0.103139
0.103139
0.103139
0.103139
0.103139
0.103139
0.103139
0.103139
0.103139
0.103139
0.103139
0.103139
0.103139
0.103139
0.103139
0.103139
0.103139
0.103139
0.103139
0.103139
0.103139
0.103139
0.103139
0.103139
0.103139
0.103139
0.103139
0.103139
0.103139
0.103139
0.103139
0.103139
0.103139
0.103139
0.103139
0.103139
0.103139
0.103139
0.103139
0.103139
0.103139
0.103139
0.103139
0.103139
0.103139
0.103139
0.103139
0.103139
0.103139
0.103139
0.103139
0.103139
0.103139
0.103139
0.103139
0.103139
0.103139
0.103139
0.103139
0.103139
0.103139
0.103139
0.103139
0.103139
0.103139
0.103139
0.103139
0.103139
0.103139
0.103139
0.103139
0.103139
0.103139
0.103139
0.103139
0.103139
0.103139
0.103139
0.103139
0.103139
0.103139
0.103139
0.103139
0.103139
0.103139
0.103139
0.103139
0.103139
0.103139
0.103139
0.103139
0.103139
0.103139
0.103139
0.103139
0.103139
0.103139
0.103139
0.103139
0.103139
0.103139
0.103139
0.103139
0.103139
0.103139
0.103139
0.103139
0.103139
0.103139
0.103139
0.103139
0.103139
0.103139
0.103139
0.103139
0.103139
0.103139
0.103139
0.103139
0.103139
0.103139
0.103139
0.103139
0.103139
0.103139
0.103139
0.103139
0.103139
)
;

boundaryField
{
    fixedWall
    {
        type            zeroGradient;
    }
    outlet
    {
        type            inletOutlet;
        inletValue      uniform 0;
        value           uniform 0.103139;
    }
    defaultFaces
    {
        type            empty;
    }
}


// ************************************************************************* //
