/*--------------------------------*- C++ -*----------------------------------*\
| =========                 |                                                 |
| \\      /  F ield         | OpenFOAM: The Open Source CFD Toolbox           |
|  \\    /   O peration     | Version:  2406                                  |
|   \\  /    A nd           | Website:  www.openfoam.com                      |
|    \\/     M anipulation  |                                                 |
\*---------------------------------------------------------------------------*/
FoamFile
{
    version     2.0;
    format      ascii;
    arch        "LSB;label=32;scalar=64";
    class       volScalarField;
    location    "2.3";
    object      Qdot;
}
// * * * * * * * * * * * * * * * * * * * * * * * * * * * * * * * * * * * * * //

dimensions      [1 -1 -3 0 0 0 0];

internalField   nonuniform List<scalar> 
1000
(
6.2849e-13
6.21075e-13
7.865e-08
2.26625e-06
1.79509e-05
9.09998e-05
0.000337095
0.000994005
0.00246438
0.00533488
0.0103624
0.018427
0.0304589
0.047353
0.0698837
0.0986316
0.13393
0.175838
0.224137
0.278352
0.337787
0.401583
0.468767
0.538316
0.609212
0.68048
0.751234
0.820699
0.888226
0.953298
1.01553
1.07467
1.13057
1.18317
1.23251
1.27868
1.32183
1.36215
1.39984
1.43512
1.4682
1.49932
1.52869
1.5565
1.58294
1.60819
1.63241
1.65572
1.67825
1.70013
1.72143
1.74224
1.76263
1.78265
1.80221
1.82169
1.84096
1.86004
1.87896
1.89774
1.9164
1.93496
1.95342
1.97182
1.99015
2.00843
2.02667
2.04488
2.06307
2.08124
2.09942
2.1176
2.13579
2.15401
2.17227
2.19057
2.20892
2.22734
2.24582
2.26439
2.28305
2.3018
2.32062
2.33938
2.35852
2.37781
2.39724
2.41681
2.43654
2.45643
2.4765
2.49675
2.51718
2.53781
2.55865
2.5797
2.60096
2.62246
2.64418
2.66614
2.68834
2.71079
2.7335
2.75647
2.7797
2.80321
2.82699
2.85105
2.8754
2.90004
2.92497
2.95021
2.97575
3.0016
3.02777
3.05427
3.08108
3.10823
3.13572
3.16356
3.19174
3.22028
3.24918
3.27845
3.30809
3.33812
3.36854
3.39936
3.43058
3.46222
3.49428
3.52678
3.55971
3.59309
3.62678
3.66067
3.6955
3.73084
3.76667
3.803
3.83986
3.87723
3.91515
3.95361
3.99264
4.03223
4.07242
4.1132
4.15459
4.1966
4.23925
4.28255
4.3265
4.37113
4.41644
4.46245
4.50918
4.55663
4.60482
4.65376
4.70347
4.75397
4.80528
4.85742
4.90986
4.96321
5.01805
5.07371
5.13024
5.18768
5.24606
5.3054
5.36572
5.42705
5.4894
5.55281
5.6173
5.68289
5.74962
5.81752
5.8866
5.95691
6.02847
6.10132
6.17549
6.25101
6.32792
6.40625
6.48605
6.56734
6.65017
6.73457
6.82059
6.90827
6.99764
7.08876
7.18167
7.2764
7.37302
7.47156
7.57208
7.67462
7.77925
7.88601
7.99496
8.10616
8.21968
8.33556
8.45389
8.57473
8.69814
8.82421
8.953
9.0846
9.21909
9.35656
9.49709
9.64078
9.78772
9.93802
10.0918
10.2491
10.4101
10.5749
10.7436
10.9163
11.0932
11.2744
11.4601
11.6503
11.8452
12.045
12.2499
12.46
12.6754
12.8964
13.1231
13.3558
13.5945
13.8396
14.0912
14.3496
14.615
14.8876
15.1677
15.4556
15.7515
16.0558
16.3688
16.6909
17.0224
17.3637
17.7152
18.0775
18.4509
18.8359
19.2332
19.6433
20.0667
20.5041
20.9561
21.4233
21.9066
22.4065
22.9239
23.4596
24.0144
24.5892
25.1849
25.8024
26.4428
27.107
27.7963
28.5119
29.2549
30.0268
30.8291
31.6632
32.5309
33.434
34.3746
35.3548
36.3772
37.4348
38.5358
39.7015
40.9194
42.1929
43.5257
44.9217
46.3849
47.9198
49.5309
51.2233
53.0024
54.874
56.8447
58.9112
61.0841
63.4067
65.8591
68.4525
71.1996
74.1141
77.2112
80.464
83.94
87.653
91.6156
95.849
100.378
105.232
110.44
116.038
122.066
128.568
135.598
143.175
151.323
160.299
170.082
180.775
192.494
205.373
219.571
235.273
252.699
272.116
293.841
318.262
345.848
377.167
412.91
453.921
501.232
556.12
620.186
695.465
784.596
891.049
1017.68
1172.43
1363.51
1602.38
1905.75
2298.28
2818.02
3527.14
4521
6019.39
8384.99
12358.5
19434.2
32716.9
59056.5
115567
254685
670277
2.12435e+06
8.17036e+06
2.16917e+07
187235
665.159
4.98169
0.140212
0.0140134
0.00355378
0.00163085
0.00106079
0.000839682
0.000740277
0.000691995
0.000667373
0.000654666
0.000647982
0.000644358
0.000642555
0.000641457
0.000640938
0.000640627
0.000640528
0.000640442
0.000640397
0.00064044
0.000640429
0.00064036
0.000640359
0.00064036
0.000640362
0.000640364
0.000640366
0.000640368
0.000640436
0.000640375
0.000640378
0.00064038
0.000640384
0.000640453
0.000640391
0.000640393
0.000640396
0.000640465
0.000640466
0.000640469
0.000640473
0.000640411
0.000640415
0.000640419
0.000640487
0.00064049
0.000640428
0.000640496
0.000640498
0.000640436
0.000640505
0.000640443
0.000640446
0.000640514
0.000640452
0.000640454
0.000640522
0.00064046
0.000640463
0.000640466
0.000640536
0.000640538
0.000640542
0.000640545
0.000640482
0.000640486
0.000640554
0.000640557
0.000640494
0.000640497
0.0006405
0.000640503
0.000640506
0.000640509
0.000640512
0.000640515
0.000640519
0.000640587
0.000640591
0.000640528
0.000640466
0.000640469
0.000640471
0.00064054
0.000640478
0.000640546
0.000640549
0.000640552
0.000640555
0.000640493
0.000640562
0.000640565
0.000640503
0.000640506
0.000640508
0.000640511
0.000640581
0.000640583
0.000640586
0.000640524
0.000640527
0.000640529
0.000640532
0.000640601
0.000640539
0.000640541
0.000640545
0.000640548
0.000640616
0.000640553
0.000640621
0.00064056
0.000640563
0.000640566
0.000640569
0.000640572
0.000640575
0.000640577
0.000640645
0.000640583
0.000640587
0.000640592
0.000640595
0.000640598
0.000640601
0.000640603
0.000640607
0.000640675
0.000640678
0.000640616
0.000640618
0.000640621
0.000640624
0.000640627
0.000640695
0.000640699
0.000640637
0.000640705
0.000640642
0.000640646
0.000640649
0.000640717
0.000640719
0.000640658
0.000640726
0.000640664
0.000640667
0.00064067
0.000640673
0.000640675
0.00064068
0.000640682
0.000640685
0.000640689
0.000640691
0.000640694
0.000640697
0.0006407
0.000640704
0.000640706
0.000640709
0.000640778
0.000640715
0.000640719
0.000640722
0.000640725
0.000640727
0.00064073
0.000640734
0.000640802
0.000640739
0.000640809
0.000640745
0.00064075
0.000640818
0.000640822
0.000640759
0.000640763
0.000640766
0.000640768
0.000640771
0.000640774
0.000640777
0.00064078
0.000640783
0.000640786
0.000640855
0.000640793
0.000640796
0.000640799
0.000640867
0.000640805
0.000640808
0.000640811
0.00064088
0.000640818
0.000640886
0.000640824
0.000640826
0.000640829
0.000640898
0.000640836
0.000640839
0.000640842
0.000640845
0.000640848
0.000640917
0.000640854
0.000640857
0.000640861
0.000640863
0.000640868
0.000640936
0.000640938
0.000640941
0.000640944
0.000640882
0.00064095
0.000640889
0.000640891
0.000640894
0.000640962
0.000640901
0.000640903
0.000640906
0.000640908
0.000640912
0.000640915
0.000640984
0.000640987
0.000640925
0.000640928
0.000640932
0.000640935
0.000640939
0.000640942
0.000640944
0.000640948
0.000640951
0.000640955
0.000641023
0.00064096
0.000640964
0.000640967
0.00064097
0.000640973
0.000640976
0.00064098
0.000641048
0.000640986
0.000640988
0.000641057
0.000640995
0.000641063
0.000641001
0.000641004
0.000641007
0.000641009
0.000641013
0.000641082
0.00064102
0.000641023
0.000641091
0.000641029
0.000641032
0.000641035
0.000641039
0.000641042
0.000641044
0.000641047
0.000641115
0.000641054
0.000641057
0.00064106
0.000641063
0.000641066
0.00064107
0.000641074
0.000641077
0.000641144
0.000641082
0.000641085
0.000641089
0.000641092
0.000641162
0.0006411
0.000641102
0.000641106
0.000641108
0.000641112
0.000641114
0.000641117
0.000641122
0.000641124
0.000641127
0.00064113
0.000641133
0.000641202
0.000641205
0.000641142
0.000641145
0.000641148
0.000641152
0.00064122
0.000641158
0.00064116
0.000641164
0.000641168
0.000641172
0.000641176
0.000641244
0.000641182
0.000641184
0.000641187
0.00064119
0.000641194
0.000641196
0.000641201
0.000641203
0.000641206
0.000641209
0.000641213
0.000641216
0.000641219
0.000641221
0.000641225
0.000641293
0.00064123
0.000641234
0.000641302
0.000641241
0.000641244
0.000641181
0.000641185
0.000641188
0.000641191
0.000641194
0.000641198
0.0006412
0.000641203
0.000641273
0.00064121
0.000641215
0.000641217
0.00064122
0.000641224
0.000641227
0.00064123
0.000641233
0.000641301
0.000641239
0.000641242
0.000641246
0.000641249
0.000641253
0.000641255
0.000641257
0.000641262
0.000641264
0.000641268
0.000641271
0.000641339
0.000641343
0.000641281
0.000641284
0.000641287
0.000641356
0.000641293
0.000641296
0.000641365
0.000641302
0.000641306
0.000641309
0.000641312
0.000641381
0.000641319
0.000641323
0.000641326
0.000641329
0.000641331
0.0006414
0.000641338
0.000641342
0.000641345
0.000641348
0.000641351
0.000641354
0.000641357
0.00064136
0.000641364
0.000641367
0.00064137
0.000641374
0.000641377
0.000641379
0.000641383
0.000641451
0.000641389
0.000641392
0.000641396
0.000641465
0.000641402
0.000641405
0.000641474
0.000641412
0.00064148
0.000641483
0.000641421
0.000641489
0.000641427
0.000641496
0.000641434
0.000641437
0.000641506
0.000641443
0.000641447
0.00064145
0.000641453
0.000641456
0.000641459
0.000641463
0.000641531
0.000641468
0.000641472
0.000641476
0.000641544
0.000641481
0.00064155
0.000641487
0.000641492
0.000641495
0.000641563
0.000641567
0.000641505
0.000641508
0.000641511
0.000641514
0.000641518
0.000641521
0.00064159
0.000641528
0.000641531
0.000641599
0.000641537
0.00064154
0.000641609
0.000641547
0.000641615
0.000641553
0.000641556
0.000641559
0.000641562
0.000641565
0.000641568
0.000641572
0.000641574
0.000641578
0.000641581
0.000641649
0.000641588
0.000641656
0.000641659
0.000641598
0.000641668
0.000641671
0.000641609
0.000641677
0.000641615
0.000641618
0.000641621
0.000641689
0.000641627
0.00064163
0.000641699
0.000641703
0.00064164
0.000641643
0.000641646
0.000641649
0.000641652
0.000641655
0.000641659
0.000641661
0.000641664
0.000641668
0.000641671
0.000641674
0.000641742
0.00064168
0.000641683
0.000641688
0.000641756
0.000641695
0.000641698
0.000641766
0.000641703
0.000641772
0.00064171
0.000641715
0.000641717
0.00064172
0.000641724
0.000641727
0.000641731
0.000641735
0.000641738
0.000641741
0.000641745
0.000641749
0.000641752
0.000641755
0.000641757
0.000641761
0.000641764
0.000641767
0.00064177
0.000641773
0.000641776
0.000641781
0.000641848
0.000641786
0.000641789
0.000641857
0.000641796
0.000641799
0.000641802
0.000641805
0.000641873
0.000641811
0.000641813
0.000641882
0.000641821
0.000641889
0.000641828
0.000641831
0.000641899
0.000641837
0.00064184
0.000641844
0.000641913
0.00064185
0.000641855
0.000641858
0.000641861
0.000641864
0.000641933
0.00064187
0.000641873
0.000641941
0.000641879
0.000641882
0.000641886
0.000641954
0.000641958
0.000641897
0.0006419
0.000641903
0.000641906
0.000641909
0.000641978
0.000641982
0.00064192
0.000641924
0.000641992
0.000641931
0.000641933
0.000641937
0.00064194
0.000641943
0.000642012
0.00064195
0.000641953
0.000641956
0.000641895
0.000641898
0.000641901
0.000641905
0.000641907
0.00064191
0.000641914
0.000641917
0.00064192
0.000641923
0.000641926
0.000641929
0.000641933
0.000642002
0.00064194
0.000642007
0.000641946
0.000641949
0.000641953
0.000641956
0.000641959
0.000641963
0.000641967
0.00064197
0.000641972
0.000642041
0.000642044
0.000641982
0.000641986
0.000641988
0.000641993
0.000641996
0.000641999
0.000642003
0.000642006
0.000642008
0.000642013
0.000642015
0.000642084
0.000642022
0.000642025
0.000642029
0.000642032
0.000642035
0.000642039
0.000642041
0.000642046
0.000642114
0.000642052
0.000642055
0.000642059
0.000642127
0.000642066
0.000642068
0.000642072
0.000642075
0.000642142
0.000642082
0.000642085
0.000642088
0.000642092
0.000642096
0.000642098
)
;

boundaryField
{
    fixedWall
    {
        type            calculated;
        value           uniform 0;
    }
    outlet
    {
        type            calculated;
        value           uniform 0;
    }
    defaultFaces
    {
        type            empty;
    }
}


// ************************************************************************* //
