/*--------------------------------*- C++ -*----------------------------------*\
| =========                 |                                                 |
| \\      /  F ield         | OpenFOAM: The Open Source CFD Toolbox           |
|  \\    /   O peration     | Version:  2406                                  |
|   \\  /    A nd           | Website:  www.openfoam.com                      |
|    \\/     M anipulation  |                                                 |
\*---------------------------------------------------------------------------*/
FoamFile
{
    version     2.0;
    format      ascii;
    arch        "LSB;label=32;scalar=64";
    class       volScalarField;
    location    "6.5";
    object      Qdot;
}
// * * * * * * * * * * * * * * * * * * * * * * * * * * * * * * * * * * * * * //

dimensions      [1 -1 -3 0 0 0 0];

internalField   nonuniform List<scalar> 
1000
(
-2.68301e-18
-1.3102e-16
-2.5663e-15
1.52177e-08
8.85622e-08
4.44829e-07
1.70127e-06
5.44283e-06
1.49258e-05
3.61318e-05
7.88899e-05
0.000157969
0.000294001
0.000513917
0.000851003
0.00134431
0.00203761
0.00297778
0.00421296
0.00579042
0.00775439
0.010144
0.0129913
0.01632
0.0201439
0.0244666
0.0292808
0.0345688
0.0403028
0.0464458
0.0529532
0.0597733
0.0668497
0.0741225
0.0815296
0.0890088
0.0964988
0.103941
0.111278
0.118461
0.125441
0.132179
0.138639
0.144791
0.150613
0.156086
0.1612
0.165946
0.170323
0.174333
0.177982
0.181278
0.184235
0.186866
0.189188
0.191217
0.192973
0.194474
0.19574
0.19679
0.197643
0.198318
0.198833
0.199206
0.199452
0.199589
0.199629
0.199588
0.199477
0.199309
0.199095
0.198843
0.198564
0.198264
0.197951
0.197632
0.197312
0.196996
0.196689
0.196393
0.196113
0.19585
0.195607
0.195387
0.195189
0.195016
0.194869
0.194747
0.194651
0.194581
0.194537
0.194519
0.194527
0.19456
0.194617
0.194699
0.194803
0.19493
0.195079
0.195248
0.195437
0.195646
0.195872
0.196116
0.196377
0.196654
0.196945
0.197251
0.19757
0.197901
0.198245
0.198599
0.198964
0.199339
0.199722
0.200115
0.200516
0.200924
0.201338
0.20176
0.202189
0.202624
0.203063
0.203508
0.203958
0.204412
0.20487
0.205332
0.205798
0.206266
0.206738
0.207213
0.20769
0.208171
0.208653
0.209138
0.209625
0.210114
0.210605
0.211098
0.211592
0.212089
0.212587
0.213086
0.213587
0.21409
0.214594
0.2151
0.215607
0.216116
0.216626
0.217137
0.21765
0.218164
0.218679
0.219196
0.219714
0.220234
0.220755
0.221278
0.221802
0.222327
0.222854
0.223383
0.223913
0.224444
0.224977
0.225512
0.226048
0.226586
0.227125
0.227666
0.228209
0.228753
0.229299
0.229847
0.230397
0.230948
0.231501
0.232055
0.232612
0.23317
0.233731
0.234293
0.234855
0.235417
0.235985
0.236555
0.237127
0.237701
0.238277
0.238855
0.239434
0.240016
0.240599
0.241185
0.241773
0.242362
0.242954
0.243548
0.244143
0.244741
0.245341
0.245943
0.246548
0.247154
0.247762
0.248373
0.248986
0.249601
0.250218
0.250837
0.251459
0.252083
0.252709
0.253337
0.253968
0.2546
0.255236
0.255873
0.256512
0.257154
0.257799
0.258445
0.259094
0.259745
0.260399
0.261055
0.261713
0.262374
0.263037
0.263702
0.26437
0.265041
0.265713
0.266388
0.267066
0.267746
0.268429
0.269114
0.269801
0.270491
0.271184
0.271879
0.272577
0.273277
0.27398
0.274685
0.275393
0.276104
0.276817
0.277533
0.278251
0.278972
0.279696
0.280422
0.281152
0.281883
0.282618
0.283355
0.284095
0.284838
0.285584
0.286332
0.287083
0.287837
0.288594
0.289354
0.290116
0.290882
0.29165
0.292422
0.293196
0.293973
0.294753
0.295536
0.296323
0.297112
0.297904
0.298699
0.299498
0.300299
0.301104
0.301911
0.302722
0.303536
0.304353
0.305174
0.305997
0.306824
0.307654
0.308488
0.309325
0.310165
0.311008
0.311855
0.312705
0.313558
0.314413
0.315267
0.316131
0.316998
0.317869
0.318743
0.319621
0.320502
0.321387
0.322276
0.323168
0.324064
0.324963
0.325866
0.326773
0.327683
0.328597
0.329515
0.330437
0.331362
0.332291
0.333224
0.334161
0.335102
0.336047
0.336995
0.337948
0.338904
0.339864
0.340829
0.341797
0.342769
0.343746
0.344726
0.345711
0.346699
0.347692
0.348689
0.34969
0.350696
0.351705
0.352719
0.353737
0.35476
0.355787
0.356818
0.357853
0.358893
0.359938
0.360987
0.36204
0.363098
0.36416
0.365228
0.366299
0.367376
0.368457
0.369543
0.370633
0.371728
0.372828
0.373933
0.375043
0.376158
0.377278
0.378403
0.379532
0.380667
0.381807
0.382952
0.384102
0.385258
0.386418
0.387584
0.388755
0.389932
0.391114
0.392301
0.393494
0.394693
0.395897
0.397106
0.398321
0.399542
0.400769
0.402001
0.403239
0.404483
0.405733
0.406989
0.40825
0.409518
0.410792
0.412071
0.413357
0.414649
0.415947
0.417251
0.418562
0.419878
0.421201
0.422531
0.423866
0.425198
0.426547
0.427903
0.429265
0.430633
0.432009
0.433391
0.434779
0.436175
0.437577
0.438986
0.440402
0.441825
0.443254
0.444691
0.446134
0.447584
0.449042
0.450506
0.451978
0.453456
0.454942
0.456435
0.457936
0.459443
0.460958
0.46248
0.46401
0.465547
0.467092
0.468644
0.470203
0.471771
0.473346
0.474928
0.476519
0.478117
0.479723
0.481337
0.482959
0.484589
0.486228
0.487874
0.489525
0.491175
0.492847
0.494526
0.496214
0.497911
0.499616
0.50133
0.503052
0.504784
0.506524
0.508273
0.510031
0.511798
0.513574
0.515359
0.517154
0.518958
0.520771
0.522594
0.524426
0.526268
0.52812
0.529981
0.531853
0.533734
0.535625
0.537527
0.539438
0.54136
0.543292
0.545234
0.547187
0.549151
0.551125
0.553109
0.555105
0.557111
0.559129
0.561157
0.563196
0.565247
0.567309
0.569382
0.571467
0.573563
0.575671
0.57779
0.579922
0.582065
0.58422
0.586387
0.588566
0.590757
0.592961
0.595177
0.597405
0.599646
0.6019
0.604166
0.606445
0.608737
0.611043
0.613361
0.615692
0.618037
0.620394
0.622766
0.625149
0.627529
0.62994
0.632366
0.634805
0.637259
0.639728
0.642211
0.644708
0.647221
0.649747
0.652289
0.654846
0.657418
0.660005
0.662607
0.665225
0.667858
0.670508
0.673173
0.675854
0.678551
0.681264
0.683994
0.686741
0.689504
0.692284
0.695081
0.697895
0.700727
0.703576
0.706442
0.709326
0.712228
0.715148
0.718086
0.721043
0.724018
0.727011
0.730023
0.733054
0.736105
0.739174
0.742263
0.745371
0.748498
0.751646
0.754813
0.758001
0.761209
0.764437
0.767685
0.770955
0.774245
0.777556
0.780888
0.784241
0.787615
0.790985
0.794399
0.797836
0.801296
0.804779
0.808284
0.811812
0.815363
0.818937
0.822534
0.826154
0.829798
0.833466
0.837158
0.840874
0.844614
0.848379
0.852169
0.855983
0.859823
0.863689
0.86758
0.871498
0.875441
0.879411
0.883408
0.887432
0.891484
0.895563
0.89967
0.903805
0.907968
0.912161
0.916382
0.920633
0.924913
0.929224
0.933565
0.937936
0.942338
0.946771
0.951236
0.955733
0.960262
0.964824
0.969418
0.974046
0.978707
0.983402
0.988131
0.992894
0.997692
1.00253
1.00739
1.0123
1.01724
1.02221
1.02718
1.03224
1.03733
1.04245
1.04762
1.05283
1.05807
1.06335
1.06867
1.07404
1.07944
1.08488
1.09036
1.09589
1.10146
1.10707
1.11272
1.11841
1.12415
1.12993
1.13576
1.14163
1.14754
1.1535
1.15951
1.16556
1.17166
1.17781
1.18401
1.19025
1.19655
1.20289
1.20929
1.21573
1.22223
1.22878
1.23538
1.24204
1.24875
1.25551
1.26233
1.26921
1.27614
1.28313
1.29018
1.29729
1.30446
1.31168
1.31897
1.32633
1.33374
1.34122
1.34876
1.35636
1.36403
1.37177
1.37958
1.38745
1.39539
1.4034
1.41148
1.41963
1.42786
1.43615
1.44452
1.45296
1.46148
1.47008
1.47874
1.48749
1.49632
1.50522
1.5142
1.52327
1.53241
1.54164
1.55095
1.56035
1.56982
1.57939
1.58904
1.59878
1.60861
1.61851
1.62844
1.63852
1.6487
1.65898
1.66935
1.67982
1.69039
1.70105
1.71181
1.72267
1.73363
1.74469
1.75586
1.76713
1.77851
1.79
1.80159
1.81329
1.82511
1.83704
1.84908
1.86124
1.87352
1.88592
1.89843
1.91108
1.92384
1.93674
1.94976
1.96291
1.9762
1.98962
2.00317
2.01687
2.0307
2.04468
2.0588
2.07307
2.08749
2.10207
2.11679
2.13167
2.14672
2.16192
2.17729
2.19282
2.20852
2.22439
2.24044
2.25666
2.27306
2.28965
2.30641
2.32335
2.34037
2.35771
2.37524
2.39297
2.4109
2.42904
2.44739
2.46595
2.48472
2.50371
2.52293
2.54237
2.56203
2.58193
2.60206
2.62243
2.64305
2.6639
2.68501
2.70638
2.728
2.74988
2.77202
2.79444
2.81713
2.84011
2.86336
2.8869
2.91073
2.93487
2.9593
2.98404
3.00909
3.03445
3.06014
3.08616
3.1125
3.13918
3.16621
3.19358
3.22131
3.24939
3.27784
3.30666
3.33586
3.36544
3.39541
3.42577
3.45654
3.48772
3.51931
3.55132
3.58377
3.61665
3.64998
3.68376
3.71799
3.75245
3.78765
3.82334
3.85952
3.89621
3.93342
3.97116
4.00943
4.04825
4.08763
4.12758
4.16811
4.20923
4.25096
4.2933
4.33627
4.37988
4.42415
4.46909
4.51471
4.56102
4.60805
4.65581
4.70431
4.75356
4.8036
4.85442
4.90606
4.95852
5.01183
5.06601
5.12107
5.17703
5.23392
5.29176
5.35056
5.41034
5.47114
5.53297
5.59559
5.6591
5.72418
5.7904
5.85779
5.92635
5.99613
6.06715
6.13944
6.21301
6.28792
6.36418
6.44182
6.52088
6.60139
6.68339
6.76691
6.85198
6.93865
7.02696
7.11694
7.20863
7.3021
7.39737
7.49449
7.59353
7.69452
7.79753
7.9026
8.00981
8.1192
8.23085
8.34481
8.46115
8.57995
8.70127
8.82519
8.95178
9.08113
9.2133
9.34839
9.48647
9.62764
9.77198
9.91958
10.0705
10.225
10.3829
10.5446
10.71
10.8793
11.0526
11.23
11.4108
11.5955
11.786
11.9811
12.181
12.3858
12.5959
12.8112
13.032
13.2586
13.4911
13.7298
13.9748
14.2265
14.485
14.7507
15.0238
15.3046
15.5935
15.8899
16.1933
16.5079
16.8319
17.1655
17.5093
17.8637
18.229
18.6056
18.9915
19.3921
19.805
20.2306
20.6701
21.1237
21.592
22.0757
22.5753
23.0915
23.6251
24.1768
24.7474
25.3379
25.949
26.5819
27.2376
27.9174
28.6226
29.3548
30.1157
30.9073
31.7323
32.5933
33.4939
34.4385
35.4319
36.4805
37.5913
38.7728
40.0342
41.3852
42.8354
44.392
46.0577
47.8265
49.678
51.5689
53.4225
55.1164
56.469
57.2299
57.0796
55.6509
52.5825
47.619
40.7505
32.3577
23.2818
14.779
7.9984
3.38589
1.0371
0.198215
0.0182764
0.000497671
1.36313e-06
-3.04074e-17
)
;

boundaryField
{
    fixedWall
    {
        type            calculated;
        value           uniform 0;
    }
    outlet
    {
        type            calculated;
        value           uniform 0;
    }
    defaultFaces
    {
        type            empty;
    }
}


// ************************************************************************* //
