/*--------------------------------*- C++ -*----------------------------------*\
| =========                 |                                                 |
| \\      /  F ield         | OpenFOAM: The Open Source CFD Toolbox           |
|  \\    /   O peration     | Version:  2406                                  |
|   \\  /    A nd           | Website:  www.openfoam.com                      |
|    \\/     M anipulation  |                                                 |
\*---------------------------------------------------------------------------*/
FoamFile
{
    version     2.0;
    format      ascii;
    arch        "LSB;label=32;scalar=64";
    class       volVectorField;
    location    "6.5";
    object      U;
}
// * * * * * * * * * * * * * * * * * * * * * * * * * * * * * * * * * * * * * //

dimensions      [0 1 -1 0 0 0 0];

internalField   nonuniform List<vector> 
1000
(
(-1.98989e-06 0 0)
(-9.13643e-06 0 0)
(-2.2803e-05 0 0)
(-4.12044e-05 0 0)
(-6.30894e-05 0 0)
(-8.77176e-05 0 0)
(-0.000114592 0 0)
(-0.000143313 0 0)
(-0.000173558 0 0)
(-0.000205058 0 0)
(-0.000237593 0 0)
(-0.000270977 0 0)
(-0.000305055 0 0)
(-0.000339692 0 0)
(-0.000374773 0 0)
(-0.000410196 0 0)
(-0.000445873 0 0)
(-0.000481726 0 0)
(-0.000517684 0 0)
(-0.000553688 0 0)
(-0.000589679 0 0)
(-0.000625609 0 0)
(-0.000661431 0 0)
(-0.000697106 0 0)
(-0.000732595 0 0)
(-0.000767864 0 0)
(-0.000802883 0 0)
(-0.000837621 0 0)
(-0.000872056 0 0)
(-0.000906161 0 0)
(-0.000939916 0 0)
(-0.000973301 0 0)
(-0.0010063 0 0)
(-0.00103889 0 0)
(-0.00107106 0 0)
(-0.0011028 0 0)
(-0.00113409 0 0)
(-0.00116492 0 0)
(-0.00119529 0 0)
(-0.00122518 0 0)
(-0.00125459 0 0)
(-0.0012835 0 0)
(-0.00131192 0 0)
(-0.00133983 0 0)
(-0.00136724 0 0)
(-0.00139413 0 0)
(-0.00142052 0 0)
(-0.00144638 0 0)
(-0.00147173 0 0)
(-0.00149656 0 0)
(-0.00152087 0 0)
(-0.00154466 0 0)
(-0.00156793 0 0)
(-0.00159068 0 0)
(-0.00161292 0 0)
(-0.00163464 0 0)
(-0.00165586 0 0)
(-0.00167657 0 0)
(-0.00169677 0 0)
(-0.00171647 0 0)
(-0.00173568 0 0)
(-0.00175439 0 0)
(-0.00177262 0 0)
(-0.00179036 0 0)
(-0.00180763 0 0)
(-0.00182443 0 0)
(-0.00184077 0 0)
(-0.00185664 0 0)
(-0.00187207 0 0)
(-0.00188704 0 0)
(-0.00190158 0 0)
(-0.00191569 0 0)
(-0.00192937 0 0)
(-0.00194264 0 0)
(-0.00195549 0 0)
(-0.00196794 0 0)
(-0.00198 0 0)
(-0.00199167 0 0)
(-0.00200296 0 0)
(-0.00201387 0 0)
(-0.00202442 0 0)
(-0.00203462 0 0)
(-0.00204447 0 0)
(-0.00205397 0 0)
(-0.00206314 0 0)
(-0.00207199 0 0)
(-0.00208052 0 0)
(-0.00208874 0 0)
(-0.00209666 0 0)
(-0.00210429 0 0)
(-0.00211163 0 0)
(-0.00211869 0 0)
(-0.00212548 0 0)
(-0.002132 0 0)
(-0.00213828 0 0)
(-0.0021443 0 0)
(-0.00215008 0 0)
(-0.00215563 0 0)
(-0.00216095 0 0)
(-0.00216606 0 0)
(-0.00217095 0 0)
(-0.00217563 0 0)
(-0.00218011 0 0)
(-0.00218441 0 0)
(-0.00218851 0 0)
(-0.00219244 0 0)
(-0.00219619 0 0)
(-0.00219978 0 0)
(-0.0022032 0 0)
(-0.00220647 0 0)
(-0.00220959 0 0)
(-0.00221257 0 0)
(-0.00221541 0 0)
(-0.00221812 0 0)
(-0.00222068 0 0)
(-0.00222312 0 0)
(-0.00222542 0 0)
(-0.00222762 0 0)
(-0.00222972 0 0)
(-0.00223172 0 0)
(-0.00223364 0 0)
(-0.00223545 0 0)
(-0.00223717 0 0)
(-0.0022388 0 0)
(-0.00224034 0 0)
(-0.0022418 0 0)
(-0.00224319 0 0)
(-0.0022445 0 0)
(-0.00224574 0 0)
(-0.00224691 0 0)
(-0.00224802 0 0)
(-0.00224907 0 0)
(-0.00225006 0 0)
(-0.00225099 0 0)
(-0.00225188 0 0)
(-0.00225271 0 0)
(-0.00225349 0 0)
(-0.00225423 0 0)
(-0.00225493 0 0)
(-0.00225559 0 0)
(-0.0022562 0 0)
(-0.00225678 0 0)
(-0.00225733 0 0)
(-0.00225784 0 0)
(-0.00225833 0 0)
(-0.00225878 0 0)
(-0.00225921 0 0)
(-0.0022596 0 0)
(-0.00225998 0 0)
(-0.00226033 0 0)
(-0.00226066 0 0)
(-0.00226097 0 0)
(-0.00226125 0 0)
(-0.00226152 0 0)
(-0.00226178 0 0)
(-0.00226201 0 0)
(-0.00226223 0 0)
(-0.00226244 0 0)
(-0.00226263 0 0)
(-0.00226281 0 0)
(-0.00226297 0 0)
(-0.00226313 0 0)
(-0.00226328 0 0)
(-0.00226341 0 0)
(-0.00226354 0 0)
(-0.00226365 0 0)
(-0.00226376 0 0)
(-0.00226386 0 0)
(-0.00226396 0 0)
(-0.00226405 0 0)
(-0.00226413 0 0)
(-0.0022642 0 0)
(-0.00226427 0 0)
(-0.00226434 0 0)
(-0.0022644 0 0)
(-0.00226445 0 0)
(-0.00226451 0 0)
(-0.00226455 0 0)
(-0.0022646 0 0)
(-0.00226464 0 0)
(-0.00226468 0 0)
(-0.00226471 0 0)
(-0.00226475 0 0)
(-0.00226478 0 0)
(-0.0022648 0 0)
(-0.00226483 0 0)
(-0.00226485 0 0)
(-0.00226488 0 0)
(-0.0022649 0 0)
(-0.00226491 0 0)
(-0.00226493 0 0)
(-0.00226495 0 0)
(-0.00226496 0 0)
(-0.00226498 0 0)
(-0.00226499 0 0)
(-0.002265 0 0)
(-0.00226501 0 0)
(-0.00226502 0 0)
(-0.00226503 0 0)
(-0.00226504 0 0)
(-0.00226504 0 0)
(-0.00226505 0 0)
(-0.00226506 0 0)
(-0.00226506 0 0)
(-0.00226507 0 0)
(-0.00226507 0 0)
(-0.00226508 0 0)
(-0.00226508 0 0)
(-0.00226508 0 0)
(-0.00226509 0 0)
(-0.00226509 0 0)
(-0.00226509 0 0)
(-0.00226509 0 0)
(-0.0022651 0 0)
(-0.0022651 0 0)
(-0.0022651 0 0)
(-0.0022651 0 0)
(-0.0022651 0 0)
(-0.0022651 0 0)
(-0.0022651 0 0)
(-0.0022651 0 0)
(-0.0022651 0 0)
(-0.0022651 0 0)
(-0.0022651 0 0)
(-0.0022651 0 0)
(-0.0022651 0 0)
(-0.0022651 0 0)
(-0.0022651 0 0)
(-0.0022651 0 0)
(-0.00226509 0 0)
(-0.0022651 0 0)
(-0.00226509 0 0)
(-0.00226509 0 0)
(-0.00226509 0 0)
(-0.00226508 0 0)
(-0.00226508 0 0)
(-0.00226508 0 0)
(-0.00226508 0 0)
(-0.00226507 0 0)
(-0.00226507 0 0)
(-0.00226507 0 0)
(-0.00226507 0 0)
(-0.00226506 0 0)
(-0.00226506 0 0)
(-0.00226506 0 0)
(-0.00226505 0 0)
(-0.00226505 0 0)
(-0.00226505 0 0)
(-0.00226504 0 0)
(-0.00226504 0 0)
(-0.00226503 0 0)
(-0.00226503 0 0)
(-0.00226503 0 0)
(-0.00226502 0 0)
(-0.00226502 0 0)
(-0.00226501 0 0)
(-0.00226501 0 0)
(-0.00226501 0 0)
(-0.002265 0 0)
(-0.002265 0 0)
(-0.00226499 0 0)
(-0.00226499 0 0)
(-0.00226498 0 0)
(-0.00226498 0 0)
(-0.00226497 0 0)
(-0.00226497 0 0)
(-0.00226496 0 0)
(-0.00226496 0 0)
(-0.00226495 0 0)
(-0.00226495 0 0)
(-0.00226494 0 0)
(-0.00226494 0 0)
(-0.00226493 0 0)
(-0.00226493 0 0)
(-0.00226492 0 0)
(-0.00226492 0 0)
(-0.00226491 0 0)
(-0.00226491 0 0)
(-0.0022649 0 0)
(-0.0022649 0 0)
(-0.00226489 0 0)
(-0.00226489 0 0)
(-0.00226488 0 0)
(-0.00226488 0 0)
(-0.00226487 0 0)
(-0.00226487 0 0)
(-0.00226486 0 0)
(-0.00226486 0 0)
(-0.00226485 0 0)
(-0.00226485 0 0)
(-0.00226484 0 0)
(-0.00226484 0 0)
(-0.00226484 0 0)
(-0.00226483 0 0)
(-0.00226483 0 0)
(-0.00226482 0 0)
(-0.00226482 0 0)
(-0.00226481 0 0)
(-0.00226481 0 0)
(-0.0022648 0 0)
(-0.0022648 0 0)
(-0.00226479 0 0)
(-0.00226479 0 0)
(-0.00226478 0 0)
(-0.00226478 0 0)
(-0.00226477 0 0)
(-0.00226477 0 0)
(-0.00226477 0 0)
(-0.00226476 0 0)
(-0.00226476 0 0)
(-0.00226475 0 0)
(-0.00226475 0 0)
(-0.00226475 0 0)
(-0.00226474 0 0)
(-0.00226474 0 0)
(-0.00226473 0 0)
(-0.00226473 0 0)
(-0.00226473 0 0)
(-0.00226472 0 0)
(-0.00226472 0 0)
(-0.00226472 0 0)
(-0.00226471 0 0)
(-0.00226471 0 0)
(-0.00226471 0 0)
(-0.0022647 0 0)
(-0.0022647 0 0)
(-0.0022647 0 0)
(-0.00226469 0 0)
(-0.00226469 0 0)
(-0.00226469 0 0)
(-0.00226468 0 0)
(-0.00226468 0 0)
(-0.00226468 0 0)
(-0.00226468 0 0)
(-0.00226467 0 0)
(-0.00226467 0 0)
(-0.00226467 0 0)
(-0.00226467 0 0)
(-0.00226467 0 0)
(-0.00226466 0 0)
(-0.00226466 0 0)
(-0.00226466 0 0)
(-0.00226466 0 0)
(-0.00226465 0 0)
(-0.00226466 0 0)
(-0.00226466 0 0)
(-0.00226465 0 0)
(-0.00226465 0 0)
(-0.00226465 0 0)
(-0.00226465 0 0)
(-0.00226465 0 0)
(-0.00226465 0 0)
(-0.00226465 0 0)
(-0.00226465 0 0)
(-0.00226465 0 0)
(-0.00226465 0 0)
(-0.00226465 0 0)
(-0.00226465 0 0)
(-0.00226465 0 0)
(-0.00226465 0 0)
(-0.00226465 0 0)
(-0.00226465 0 0)
(-0.00226465 0 0)
(-0.00226465 0 0)
(-0.00226465 0 0)
(-0.00226466 0 0)
(-0.00226466 0 0)
(-0.00226466 0 0)
(-0.00226466 0 0)
(-0.00226466 0 0)
(-0.00226466 0 0)
(-0.00226467 0 0)
(-0.00226467 0 0)
(-0.00226467 0 0)
(-0.00226467 0 0)
(-0.00226467 0 0)
(-0.00226468 0 0)
(-0.00226468 0 0)
(-0.00226468 0 0)
(-0.00226468 0 0)
(-0.00226469 0 0)
(-0.00226469 0 0)
(-0.00226469 0 0)
(-0.0022647 0 0)
(-0.0022647 0 0)
(-0.0022647 0 0)
(-0.0022647 0 0)
(-0.00226471 0 0)
(-0.00226471 0 0)
(-0.00226471 0 0)
(-0.00226472 0 0)
(-0.00226472 0 0)
(-0.00226472 0 0)
(-0.00226472 0 0)
(-0.00226473 0 0)
(-0.00226473 0 0)
(-0.00226473 0 0)
(-0.00226473 0 0)
(-0.00226473 0 0)
(-0.00226474 0 0)
(-0.00226474 0 0)
(-0.00226474 0 0)
(-0.00226475 0 0)
(-0.00226475 0 0)
(-0.00226475 0 0)
(-0.00226475 0 0)
(-0.00226475 0 0)
(-0.00226475 0 0)
(-0.00226476 0 0)
(-0.00226476 0 0)
(-0.00226476 0 0)
(-0.00226476 0 0)
(-0.00226476 0 0)
(-0.00226476 0 0)
(-0.00226476 0 0)
(-0.00226476 0 0)
(-0.00226476 0 0)
(-0.00226476 0 0)
(-0.00226476 0 0)
(-0.00226476 0 0)
(-0.00226476 0 0)
(-0.00226476 0 0)
(-0.00226476 0 0)
(-0.00226476 0 0)
(-0.00226476 0 0)
(-0.00226476 0 0)
(-0.00226475 0 0)
(-0.00226475 0 0)
(-0.00226475 0 0)
(-0.00226475 0 0)
(-0.00226475 0 0)
(-0.00226475 0 0)
(-0.00226474 0 0)
(-0.00226474 0 0)
(-0.00226474 0 0)
(-0.00226474 0 0)
(-0.00226474 0 0)
(-0.00226473 0 0)
(-0.00226473 0 0)
(-0.00226473 0 0)
(-0.00226473 0 0)
(-0.00226472 0 0)
(-0.00226472 0 0)
(-0.00226472 0 0)
(-0.00226472 0 0)
(-0.00226471 0 0)
(-0.00226471 0 0)
(-0.00226471 0 0)
(-0.0022647 0 0)
(-0.0022647 0 0)
(-0.0022647 0 0)
(-0.0022647 0 0)
(-0.0022647 0 0)
(-0.00226469 0 0)
(-0.00226469 0 0)
(-0.00226469 0 0)
(-0.00226469 0 0)
(-0.00226469 0 0)
(-0.00226468 0 0)
(-0.00226468 0 0)
(-0.00226468 0 0)
(-0.00226468 0 0)
(-0.00226468 0 0)
(-0.00226468 0 0)
(-0.00226467 0 0)
(-0.00226467 0 0)
(-0.00226467 0 0)
(-0.00226467 0 0)
(-0.00226467 0 0)
(-0.00226467 0 0)
(-0.00226467 0 0)
(-0.00226466 0 0)
(-0.00226467 0 0)
(-0.00226466 0 0)
(-0.00226467 0 0)
(-0.00226466 0 0)
(-0.00226466 0 0)
(-0.00226466 0 0)
(-0.00226466 0 0)
(-0.00226466 0 0)
(-0.00226466 0 0)
(-0.00226466 0 0)
(-0.00226466 0 0)
(-0.00226466 0 0)
(-0.00226466 0 0)
(-0.00226466 0 0)
(-0.00226466 0 0)
(-0.00226466 0 0)
(-0.00226466 0 0)
(-0.00226466 0 0)
(-0.00226466 0 0)
(-0.00226466 0 0)
(-0.00226466 0 0)
(-0.00226466 0 0)
(-0.00226466 0 0)
(-0.00226466 0 0)
(-0.00226466 0 0)
(-0.00226466 0 0)
(-0.00226466 0 0)
(-0.00226466 0 0)
(-0.00226466 0 0)
(-0.00226466 0 0)
(-0.00226466 0 0)
(-0.00226466 0 0)
(-0.00226466 0 0)
(-0.00226466 0 0)
(-0.00226466 0 0)
(-0.00226466 0 0)
(-0.00226466 0 0)
(-0.00226466 0 0)
(-0.00226466 0 0)
(-0.00226466 0 0)
(-0.00226466 0 0)
(-0.00226466 0 0)
(-0.00226466 0 0)
(-0.00226466 0 0)
(-0.00226466 0 0)
(-0.00226466 0 0)
(-0.00226466 0 0)
(-0.00226466 0 0)
(-0.00226466 0 0)
(-0.00226466 0 0)
(-0.00226466 0 0)
(-0.00226466 0 0)
(-0.00226466 0 0)
(-0.00226466 0 0)
(-0.00226466 0 0)
(-0.00226466 0 0)
(-0.00226466 0 0)
(-0.00226466 0 0)
(-0.00226466 0 0)
(-0.00226466 0 0)
(-0.00226466 0 0)
(-0.00226466 0 0)
(-0.00226466 0 0)
(-0.00226466 0 0)
(-0.00226466 0 0)
(-0.00226466 0 0)
(-0.00226466 0 0)
(-0.00226466 0 0)
(-0.00226466 0 0)
(-0.00226465 0 0)
(-0.00226466 0 0)
(-0.00226465 0 0)
(-0.00226466 0 0)
(-0.00226465 0 0)
(-0.00226465 0 0)
(-0.00226465 0 0)
(-0.00226465 0 0)
(-0.00226465 0 0)
(-0.00226465 0 0)
(-0.00226465 0 0)
(-0.00226465 0 0)
(-0.00226464 0 0)
(-0.00226464 0 0)
(-0.00226464 0 0)
(-0.00226464 0 0)
(-0.00226464 0 0)
(-0.00226463 0 0)
(-0.00226463 0 0)
(-0.00226463 0 0)
(-0.00226462 0 0)
(-0.00226462 0 0)
(-0.00226462 0 0)
(-0.00226461 0 0)
(-0.00226461 0 0)
(-0.00226461 0 0)
(-0.0022646 0 0)
(-0.0022646 0 0)
(-0.0022646 0 0)
(-0.00226459 0 0)
(-0.00226459 0 0)
(-0.00226458 0 0)
(-0.00226458 0 0)
(-0.00226458 0 0)
(-0.00226457 0 0)
(-0.00226457 0 0)
(-0.00226456 0 0)
(-0.00226456 0 0)
(-0.00226455 0 0)
(-0.00226455 0 0)
(-0.00226455 0 0)
(-0.00226454 0 0)
(-0.00226454 0 0)
(-0.00226453 0 0)
(-0.00226453 0 0)
(-0.00226452 0 0)
(-0.00226452 0 0)
(-0.00226452 0 0)
(-0.00226451 0 0)
(-0.00226451 0 0)
(-0.00226451 0 0)
(-0.0022645 0 0)
(-0.0022645 0 0)
(-0.0022645 0 0)
(-0.0022645 0 0)
(-0.00226449 0 0)
(-0.00226449 0 0)
(-0.00226449 0 0)
(-0.00226449 0 0)
(-0.00226449 0 0)
(-0.00226448 0 0)
(-0.00226449 0 0)
(-0.00226448 0 0)
(-0.00226448 0 0)
(-0.00226448 0 0)
(-0.00226448 0 0)
(-0.00226448 0 0)
(-0.00226448 0 0)
(-0.00226449 0 0)
(-0.00226449 0 0)
(-0.00226449 0 0)
(-0.00226449 0 0)
(-0.00226449 0 0)
(-0.00226449 0 0)
(-0.00226449 0 0)
(-0.00226449 0 0)
(-0.0022645 0 0)
(-0.0022645 0 0)
(-0.0022645 0 0)
(-0.0022645 0 0)
(-0.0022645 0 0)
(-0.00226451 0 0)
(-0.00226451 0 0)
(-0.00226451 0 0)
(-0.00226451 0 0)
(-0.00226451 0 0)
(-0.00226451 0 0)
(-0.00226451 0 0)
(-0.00226451 0 0)
(-0.00226452 0 0)
(-0.00226452 0 0)
(-0.00226452 0 0)
(-0.00226452 0 0)
(-0.00226452 0 0)
(-0.00226452 0 0)
(-0.00226452 0 0)
(-0.00226452 0 0)
(-0.00226452 0 0)
(-0.00226452 0 0)
(-0.00226452 0 0)
(-0.00226452 0 0)
(-0.00226452 0 0)
(-0.00226452 0 0)
(-0.00226452 0 0)
(-0.00226451 0 0)
(-0.00226452 0 0)
(-0.00226451 0 0)
(-0.00226451 0 0)
(-0.00226451 0 0)
(-0.00226451 0 0)
(-0.00226451 0 0)
(-0.0022645 0 0)
(-0.0022645 0 0)
(-0.0022645 0 0)
(-0.0022645 0 0)
(-0.0022645 0 0)
(-0.0022645 0 0)
(-0.00226449 0 0)
(-0.0022645 0 0)
(-0.00226449 0 0)
(-0.00226449 0 0)
(-0.00226449 0 0)
(-0.00226449 0 0)
(-0.00226449 0 0)
(-0.00226449 0 0)
(-0.00226449 0 0)
(-0.00226449 0 0)
(-0.00226449 0 0)
(-0.00226449 0 0)
(-0.00226449 0 0)
(-0.00226449 0 0)
(-0.00226449 0 0)
(-0.00226449 0 0)
(-0.00226449 0 0)
(-0.00226449 0 0)
(-0.00226449 0 0)
(-0.00226449 0 0)
(-0.00226449 0 0)
(-0.00226449 0 0)
(-0.0022645 0 0)
(-0.00226449 0 0)
(-0.00226449 0 0)
(-0.00226449 0 0)
(-0.00226449 0 0)
(-0.00226449 0 0)
(-0.00226449 0 0)
(-0.00226449 0 0)
(-0.00226449 0 0)
(-0.00226449 0 0)
(-0.00226449 0 0)
(-0.00226448 0 0)
(-0.00226448 0 0)
(-0.00226448 0 0)
(-0.00226448 0 0)
(-0.00226447 0 0)
(-0.00226447 0 0)
(-0.00226446 0 0)
(-0.00226446 0 0)
(-0.00226445 0 0)
(-0.00226445 0 0)
(-0.00226444 0 0)
(-0.00226443 0 0)
(-0.00226442 0 0)
(-0.00226442 0 0)
(-0.00226441 0 0)
(-0.0022644 0 0)
(-0.00226439 0 0)
(-0.00226438 0 0)
(-0.00226437 0 0)
(-0.00226436 0 0)
(-0.00226435 0 0)
(-0.00226433 0 0)
(-0.00226432 0 0)
(-0.00226431 0 0)
(-0.0022643 0 0)
(-0.00226429 0 0)
(-0.00226427 0 0)
(-0.00226426 0 0)
(-0.00226425 0 0)
(-0.00226423 0 0)
(-0.00226422 0 0)
(-0.00226421 0 0)
(-0.0022642 0 0)
(-0.00226418 0 0)
(-0.00226417 0 0)
(-0.00226416 0 0)
(-0.00226415 0 0)
(-0.00226414 0 0)
(-0.00226412 0 0)
(-0.00226411 0 0)
(-0.0022641 0 0)
(-0.00226409 0 0)
(-0.00226409 0 0)
(-0.00226408 0 0)
(-0.00226407 0 0)
(-0.00226406 0 0)
(-0.00226406 0 0)
(-0.00226405 0 0)
(-0.00226405 0 0)
(-0.00226404 0 0)
(-0.00226404 0 0)
(-0.00226404 0 0)
(-0.00226404 0 0)
(-0.00226404 0 0)
(-0.00226404 0 0)
(-0.00226404 0 0)
(-0.00226404 0 0)
(-0.00226404 0 0)
(-0.00226404 0 0)
(-0.00226405 0 0)
(-0.00226405 0 0)
(-0.00226406 0 0)
(-0.00226407 0 0)
(-0.00226407 0 0)
(-0.00226408 0 0)
(-0.00226409 0 0)
(-0.0022641 0 0)
(-0.00226411 0 0)
(-0.00226412 0 0)
(-0.00226413 0 0)
(-0.00226414 0 0)
(-0.00226415 0 0)
(-0.00226416 0 0)
(-0.00226417 0 0)
(-0.00226418 0 0)
(-0.00226419 0 0)
(-0.00226421 0 0)
(-0.00226422 0 0)
(-0.00226423 0 0)
(-0.00226424 0 0)
(-0.00226425 0 0)
(-0.00226426 0 0)
(-0.00226427 0 0)
(-0.00226428 0 0)
(-0.00226429 0 0)
(-0.0022643 0 0)
(-0.00226431 0 0)
(-0.00226432 0 0)
(-0.00226433 0 0)
(-0.00226433 0 0)
(-0.00226434 0 0)
(-0.00226435 0 0)
(-0.00226435 0 0)
(-0.00226436 0 0)
(-0.00226436 0 0)
(-0.00226437 0 0)
(-0.00226437 0 0)
(-0.00226437 0 0)
(-0.00226437 0 0)
(-0.00226437 0 0)
(-0.00226437 0 0)
(-0.00226437 0 0)
(-0.00226437 0 0)
(-0.00226436 0 0)
(-0.00226436 0 0)
(-0.00226435 0 0)
(-0.00226434 0 0)
(-0.00226434 0 0)
(-0.00226433 0 0)
(-0.00226432 0 0)
(-0.00226431 0 0)
(-0.0022643 0 0)
(-0.00226429 0 0)
(-0.00226427 0 0)
(-0.00226426 0 0)
(-0.00226425 0 0)
(-0.00226423 0 0)
(-0.00226421 0 0)
(-0.0022642 0 0)
(-0.00226418 0 0)
(-0.00226416 0 0)
(-0.00226414 0 0)
(-0.00226412 0 0)
(-0.0022641 0 0)
(-0.00226408 0 0)
(-0.00226406 0 0)
(-0.00226404 0 0)
(-0.00226402 0 0)
(-0.002264 0 0)
(-0.00226398 0 0)
(-0.00226395 0 0)
(-0.00226393 0 0)
(-0.00226391 0 0)
(-0.00226389 0 0)
(-0.00226387 0 0)
(-0.00226385 0 0)
(-0.00226383 0 0)
(-0.00226381 0 0)
(-0.00226379 0 0)
(-0.00226377 0 0)
(-0.00226375 0 0)
(-0.00226374 0 0)
(-0.00226372 0 0)
(-0.00226371 0 0)
(-0.00226369 0 0)
(-0.00226368 0 0)
(-0.00226367 0 0)
(-0.00226365 0 0)
(-0.00226364 0 0)
(-0.00226363 0 0)
(-0.00226363 0 0)
(-0.00226362 0 0)
(-0.00226361 0 0)
(-0.00226361 0 0)
(-0.0022636 0 0)
(-0.0022636 0 0)
(-0.0022636 0 0)
(-0.0022636 0 0)
(-0.0022636 0 0)
(-0.00226359 0 0)
(-0.0022636 0 0)
(-0.0022636 0 0)
(-0.0022636 0 0)
(-0.00226361 0 0)
(-0.00226361 0 0)
(-0.00226362 0 0)
(-0.00226362 0 0)
(-0.00226363 0 0)
(-0.00226363 0 0)
(-0.00226364 0 0)
(-0.00226364 0 0)
(-0.00226365 0 0)
(-0.00226365 0 0)
(-0.00226366 0 0)
(-0.00226366 0 0)
(-0.00226366 0 0)
(-0.00226366 0 0)
(-0.00226367 0 0)
(-0.00226367 0 0)
(-0.00226366 0 0)
(-0.00226366 0 0)
(-0.00226366 0 0)
(-0.00226366 0 0)
(-0.00226365 0 0)
(-0.00226364 0 0)
(-0.00226364 0 0)
(-0.00226363 0 0)
(-0.00226362 0 0)
(-0.00226361 0 0)
(-0.0022636 0 0)
(-0.00226358 0 0)
(-0.00226357 0 0)
(-0.00226356 0 0)
(-0.00226354 0 0)
(-0.00226353 0 0)
(-0.00226352 0 0)
(-0.0022635 0 0)
(-0.00226349 0 0)
(-0.00226348 0 0)
(-0.00226346 0 0)
(-0.00226345 0 0)
(-0.00226344 0 0)
(-0.00226342 0 0)
(-0.00226341 0 0)
(-0.0022634 0 0)
(-0.00226339 0 0)
(-0.00226337 0 0)
(-0.00226336 0 0)
(-0.00226335 0 0)
(-0.00226333 0 0)
(-0.00226332 0 0)
(-0.0022633 0 0)
(-0.00226329 0 0)
(-0.00226327 0 0)
(-0.00226325 0 0)
(-0.00226323 0 0)
(-0.00226321 0 0)
(-0.00226318 0 0)
(-0.00226316 0 0)
(-0.00226313 0 0)
(-0.0022631 0 0)
(-0.00226307 0 0)
(-0.00226304 0 0)
(-0.00226301 0 0)
(-0.00226298 0 0)
(-0.00226294 0 0)
(-0.00226291 0 0)
(-0.00226288 0 0)
(-0.00226284 0 0)
(-0.00226281 0 0)
(-0.00226278 0 0)
(-0.00226275 0 0)
(-0.00226272 0 0)
(-0.0022627 0 0)
(-0.00226268 0 0)
(-0.00226266 0 0)
(-0.00226264 0 0)
(-0.00226263 0 0)
(-0.00226262 0 0)
(-0.00226262 0 0)
(-0.00226261 0 0)
(-0.00226261 0 0)
(-0.00226261 0 0)
(-0.00226262 0 0)
(-0.00226263 0 0)
(-0.00226263 0 0)
(-0.00226265 0 0)
(-0.00226266 0 0)
(-0.00226268 0 0)
(-0.0022627 0 0)
(-0.00226273 0 0)
(-0.00226277 0 0)
(-0.00226282 0 0)
(-0.00226289 0 0)
(-0.00226299 0 0)
(-0.00226312 0 0)
(-0.0022633 0 0)
(-0.00226355 0 0)
(-0.00226389 0 0)
(-0.00226435 0 0)
(-0.00226497 0 0)
(-0.00226578 0 0)
(-0.00226686 0 0)
(-0.00226827 0 0)
(-0.00227012 0 0)
(-0.00227251 0 0)
(-0.00227559 0 0)
(-0.00227955 0 0)
(-0.0022846 0 0)
(-0.002291 0 0)
(-0.00229909 0 0)
(-0.00230926 0 0)
(-0.00232197 0 0)
(-0.00233778 0 0)
(-0.00235735 0 0)
(-0.00238145 0 0)
(-0.00241096 0 0)
(-0.00244691 0 0)
(-0.00249045 0 0)
(-0.00254291 0 0)
(-0.00260573 0 0)
(-0.00268051 0 0)
(-0.00276896 0 0)
(-0.00287291 0 0)
(-0.00299428 0 0)
(-0.00313501 0 0)
(-0.00329702 0 0)
(-0.00348215 0 0)
(-0.00369206 0 0)
(-0.00392816 0 0)
(-0.00419144 0 0)
(-0.0044824 0 0)
(-0.00480082 0 0)
(-0.00514569 0 0)
(-0.00551491 0 0)
(-0.00590515 0 0)
(-0.0063116 0 0)
(-0.00672753 0 0)
(-0.00714595 0 0)
(-0.00755206 0 0)
(-0.00792621 0 0)
(-0.00826635 0 0)
(-0.00856181 0 0)
(-0.00876679 0 0)
(-0.00884412 0 0)
(-0.00875489 0 0)
(-0.00835371 0 0)
(-0.00737142 0 0)
(-0.0059832 0 0)
)
;

boundaryField
{
    fixedWall
    {
        type            fixedValue;
        value           uniform (0 0 0);
    }
    outlet
    {
        type            pressureInletOutletVelocity;
        value           uniform (-0.0059832 0 0);
    }
    defaultFaces
    {
        type            empty;
    }
}


// ************************************************************************* //
