/*--------------------------------*- C++ -*----------------------------------*\
| =========                 |                                                 |
| \\      /  F ield         | OpenFOAM: The Open Source CFD Toolbox           |
|  \\    /   O peration     | Version:  2406                                  |
|   \\  /    A nd           | Website:  www.openfoam.com                      |
|    \\/     M anipulation  |                                                 |
\*---------------------------------------------------------------------------*/
FoamFile
{
    version     2.0;
    format      ascii;
    arch        "LSB;label=32;scalar=64";
    class       volScalarField;
    location    "10.5";
    object      O2;
}
// * * * * * * * * * * * * * * * * * * * * * * * * * * * * * * * * * * * * * //

dimensions      [0 0 0 0 0 0 0];

internalField   nonuniform List<scalar> 
1000
(
1.13448e-06
1.13261e-06
1.12922e-06
1.12454e-06
1.11877e-06
1.11205e-06
1.10448e-06
1.09618e-06
1.08721e-06
1.07765e-06
1.06755e-06
1.05697e-06
1.04596e-06
1.03455e-06
1.02279e-06
1.0107e-06
9.98324e-07
9.85684e-07
9.72809e-07
9.59723e-07
9.4645e-07
9.33011e-07
9.19427e-07
9.05719e-07
8.91905e-07
8.78002e-07
8.64029e-07
8.50002e-07
8.35937e-07
8.21849e-07
8.07755e-07
7.93668e-07
7.79603e-07
7.65575e-07
7.51596e-07
7.37681e-07
7.23842e-07
7.10092e-07
6.96443e-07
6.82907e-07
6.69495e-07
6.56219e-07
6.43088e-07
6.30113e-07
6.17302e-07
6.04666e-07
5.92213e-07
5.79949e-07
5.67884e-07
5.56022e-07
5.44371e-07
5.32935e-07
5.2172e-07
5.10731e-07
4.9997e-07
4.89441e-07
4.79146e-07
4.69088e-07
4.59268e-07
4.49688e-07
4.40346e-07
4.31245e-07
4.22382e-07
4.13758e-07
4.05372e-07
3.9722e-07
3.89303e-07
3.81616e-07
3.74159e-07
3.66927e-07
3.59918e-07
3.53129e-07
3.46555e-07
3.40194e-07
3.34041e-07
3.28093e-07
3.22345e-07
3.16793e-07
3.11432e-07
3.06259e-07
3.01269e-07
2.96457e-07
2.91819e-07
2.8735e-07
2.83047e-07
2.78904e-07
2.74917e-07
2.71082e-07
2.67394e-07
2.63848e-07
2.60442e-07
2.57169e-07
2.54027e-07
2.51011e-07
2.48117e-07
2.45341e-07
2.42679e-07
2.40127e-07
2.37682e-07
2.3534e-07
2.33098e-07
2.30952e-07
2.28898e-07
2.26933e-07
2.25055e-07
2.2326e-07
2.21544e-07
2.19906e-07
2.18342e-07
2.16849e-07
2.15425e-07
2.14067e-07
2.12773e-07
2.1154e-07
2.10366e-07
2.09248e-07
2.08184e-07
2.07173e-07
2.06212e-07
2.05298e-07
2.04431e-07
2.03608e-07
2.02828e-07
2.02088e-07
2.01388e-07
2.00724e-07
2.00097e-07
1.99504e-07
1.98945e-07
1.98416e-07
1.97918e-07
1.97449e-07
1.97008e-07
1.96593e-07
1.96204e-07
1.95839e-07
1.95497e-07
1.95178e-07
1.9488e-07
1.94602e-07
1.94344e-07
1.94104e-07
1.93882e-07
1.93677e-07
1.93488e-07
1.93315e-07
1.93157e-07
1.93012e-07
1.92882e-07
1.92764e-07
1.92658e-07
1.92564e-07
1.92482e-07
1.9241e-07
1.92348e-07
1.92296e-07
1.92253e-07
1.92219e-07
1.92194e-07
1.92176e-07
1.92166e-07
1.92164e-07
1.92168e-07
1.92179e-07
1.92196e-07
1.92219e-07
1.92248e-07
1.92283e-07
1.92322e-07
1.92367e-07
1.92416e-07
1.9247e-07
1.92528e-07
1.9259e-07
1.92656e-07
1.92726e-07
1.92799e-07
1.92875e-07
1.92955e-07
1.93037e-07
1.93122e-07
1.9321e-07
1.93301e-07
1.93394e-07
1.9349e-07
1.93588e-07
1.93687e-07
1.93789e-07
1.93893e-07
1.93999e-07
1.94106e-07
1.94215e-07
1.94325e-07
1.94437e-07
1.94551e-07
1.94666e-07
1.94782e-07
1.94899e-07
1.95017e-07
1.95137e-07
1.95258e-07
1.95379e-07
1.95502e-07
1.95625e-07
1.9575e-07
1.95875e-07
1.96001e-07
1.96128e-07
1.96255e-07
1.96383e-07
1.96512e-07
1.96642e-07
1.96772e-07
1.96902e-07
1.97033e-07
1.97165e-07
1.97297e-07
1.9743e-07
1.97563e-07
1.97697e-07
1.97831e-07
1.97965e-07
1.981e-07
1.98235e-07
1.98371e-07
1.98507e-07
1.98643e-07
1.9878e-07
1.98917e-07
1.99054e-07
1.99191e-07
1.99329e-07
1.99467e-07
1.99606e-07
1.99744e-07
1.99883e-07
2.00023e-07
2.00162e-07
2.00302e-07
2.00442e-07
2.00582e-07
2.00722e-07
2.00862e-07
2.01003e-07
2.01144e-07
2.01285e-07
2.01426e-07
2.01568e-07
2.0171e-07
2.01852e-07
2.01994e-07
2.02136e-07
2.02279e-07
2.02422e-07
2.02565e-07
2.02708e-07
2.02851e-07
2.02994e-07
2.03138e-07
2.03282e-07
2.03426e-07
2.0357e-07
2.03714e-07
2.03859e-07
2.04004e-07
2.04148e-07
2.04293e-07
2.04439e-07
2.04584e-07
2.04729e-07
2.04875e-07
2.05021e-07
2.05167e-07
2.05313e-07
2.05459e-07
2.05606e-07
2.05752e-07
2.05899e-07
2.06046e-07
2.06193e-07
2.0634e-07
2.06488e-07
2.06635e-07
2.06783e-07
2.06931e-07
2.07079e-07
2.07228e-07
2.07376e-07
2.07525e-07
2.07673e-07
2.07822e-07
2.07971e-07
2.08121e-07
2.0827e-07
2.0842e-07
2.08569e-07
2.08719e-07
2.0887e-07
2.0902e-07
2.0917e-07
2.0932e-07
2.09471e-07
2.09622e-07
2.09773e-07
2.09924e-07
2.10076e-07
2.10228e-07
2.1038e-07
2.10532e-07
2.10684e-07
2.10837e-07
2.10989e-07
2.11142e-07
2.11295e-07
2.11448e-07
2.11602e-07
2.11755e-07
2.11909e-07
2.12063e-07
2.12217e-07
2.12372e-07
2.12526e-07
2.12681e-07
2.12836e-07
2.12991e-07
2.13147e-07
2.13302e-07
2.13458e-07
2.13614e-07
2.1377e-07
2.13927e-07
2.14083e-07
2.1424e-07
2.14397e-07
2.14555e-07
2.14712e-07
2.1487e-07
2.15028e-07
2.15186e-07
2.15344e-07
2.15503e-07
2.15662e-07
2.15821e-07
2.1598e-07
2.1614e-07
2.16299e-07
2.16459e-07
2.16619e-07
2.1678e-07
2.16941e-07
2.17101e-07
2.17263e-07
2.17424e-07
2.17586e-07
2.17747e-07
2.1791e-07
2.18072e-07
2.18234e-07
2.18397e-07
2.1856e-07
2.18724e-07
2.18887e-07
2.19051e-07
2.19215e-07
2.19379e-07
2.19544e-07
2.19709e-07
2.19874e-07
2.20039e-07
2.20205e-07
2.20371e-07
2.20537e-07
2.20703e-07
2.2087e-07
2.21037e-07
2.21204e-07
2.21371e-07
2.21539e-07
2.21707e-07
2.21875e-07
2.22044e-07
2.22213e-07
2.22382e-07
2.22551e-07
2.22721e-07
2.2289e-07
2.2306e-07
2.23231e-07
2.23401e-07
2.23572e-07
2.23744e-07
2.23915e-07
2.24087e-07
2.24259e-07
2.24431e-07
2.24604e-07
2.24777e-07
2.2495e-07
2.25123e-07
2.25297e-07
2.25471e-07
2.25645e-07
2.25819e-07
2.25994e-07
2.26169e-07
2.26345e-07
2.2652e-07
2.26696e-07
2.26872e-07
2.27049e-07
2.27225e-07
2.27402e-07
2.2758e-07
2.27757e-07
2.27935e-07
2.28113e-07
2.28292e-07
2.2847e-07
2.28649e-07
2.28829e-07
2.29008e-07
2.29188e-07
2.29368e-07
2.29548e-07
2.29729e-07
2.2991e-07
2.30091e-07
2.30273e-07
2.30455e-07
2.30637e-07
2.30819e-07
2.31002e-07
2.31185e-07
2.31368e-07
2.31552e-07
2.31735e-07
2.3192e-07
2.32104e-07
2.32289e-07
2.32474e-07
2.32659e-07
2.32844e-07
2.3303e-07
2.33216e-07
2.33403e-07
2.3359e-07
2.33777e-07
2.33964e-07
2.34152e-07
2.3434e-07
2.34528e-07
2.34716e-07
2.34905e-07
2.35094e-07
2.35284e-07
2.35474e-07
2.35664e-07
2.35854e-07
2.36045e-07
2.36235e-07
2.36427e-07
2.36618e-07
2.3681e-07
2.37002e-07
2.37195e-07
2.37388e-07
2.37581e-07
2.37774e-07
2.37968e-07
2.38162e-07
2.38356e-07
2.38551e-07
2.38746e-07
2.38941e-07
2.39137e-07
2.39333e-07
2.39529e-07
2.39726e-07
2.39923e-07
2.4012e-07
2.40318e-07
2.40516e-07
2.40714e-07
2.40912e-07
2.41111e-07
2.41311e-07
2.4151e-07
2.4171e-07
2.4191e-07
2.42111e-07
2.42312e-07
2.42513e-07
2.42715e-07
2.42917e-07
2.43119e-07
2.43321e-07
2.43524e-07
2.43728e-07
2.43931e-07
2.44135e-07
2.4434e-07
2.44544e-07
2.44749e-07
2.44955e-07
2.4516e-07
2.45366e-07
2.45573e-07
2.45779e-07
2.45986e-07
2.46194e-07
2.46402e-07
2.4661e-07
2.46818e-07
2.47027e-07
2.47236e-07
2.47446e-07
2.47656e-07
2.47866e-07
2.48077e-07
2.48288e-07
2.48499e-07
2.48711e-07
2.48923e-07
2.49136e-07
2.49348e-07
2.49562e-07
2.49775e-07
2.49989e-07
2.50203e-07
2.50418e-07
2.50633e-07
2.50848e-07
2.51064e-07
2.5128e-07
2.51497e-07
2.51714e-07
2.51931e-07
2.52149e-07
2.52367e-07
2.52585e-07
2.52804e-07
2.53023e-07
2.53242e-07
2.53462e-07
2.53682e-07
2.53903e-07
2.54124e-07
2.54345e-07
2.54567e-07
2.54789e-07
2.55012e-07
2.55235e-07
2.55458e-07
2.55682e-07
2.55906e-07
2.5613e-07
2.56355e-07
2.5658e-07
2.56806e-07
2.57032e-07
2.57258e-07
2.57485e-07
2.57712e-07
2.5794e-07
2.58168e-07
2.58396e-07
2.58625e-07
2.58854e-07
2.59084e-07
2.59314e-07
2.59544e-07
2.59775e-07
2.60006e-07
2.60238e-07
2.6047e-07
2.60702e-07
2.60935e-07
2.61168e-07
2.61402e-07
2.61636e-07
2.6187e-07
2.62105e-07
2.6234e-07
2.62576e-07
2.62812e-07
2.63049e-07
2.63286e-07
2.63523e-07
2.63761e-07
2.63999e-07
2.64238e-07
2.64477e-07
2.64717e-07
2.64957e-07
2.65197e-07
2.65438e-07
2.65679e-07
2.65921e-07
2.66163e-07
2.66406e-07
2.66649e-07
2.66892e-07
2.67136e-07
2.67381e-07
2.67626e-07
2.67871e-07
2.68117e-07
2.68363e-07
2.6861e-07
2.68857e-07
2.69105e-07
2.69353e-07
2.69601e-07
2.6985e-07
2.701e-07
2.7035e-07
2.706e-07
2.70851e-07
2.71102e-07
2.71354e-07
2.71607e-07
2.7186e-07
2.72112e-07
2.72365e-07
2.72619e-07
2.72874e-07
2.73129e-07
2.73385e-07
2.73641e-07
2.73898e-07
2.74155e-07
2.74413e-07
2.74671e-07
2.7493e-07
2.75189e-07
2.75449e-07
2.75709e-07
2.7597e-07
2.76231e-07
2.76493e-07
2.76755e-07
2.77018e-07
2.77281e-07
2.77545e-07
2.77809e-07
2.78074e-07
2.78339e-07
2.78605e-07
2.78871e-07
2.79138e-07
2.79405e-07
2.79673e-07
2.79942e-07
2.80211e-07
2.8048e-07
2.8075e-07
2.81021e-07
2.81292e-07
2.81563e-07
2.81835e-07
2.82108e-07
2.82381e-07
2.82655e-07
2.82929e-07
2.83204e-07
2.83479e-07
2.83755e-07
2.84031e-07
2.84308e-07
2.84585e-07
2.84863e-07
2.85141e-07
2.8542e-07
2.857e-07
2.8598e-07
2.8626e-07
2.86541e-07
2.86823e-07
2.87105e-07
2.87386e-07
2.87669e-07
2.87953e-07
2.88237e-07
2.88522e-07
2.88807e-07
2.89093e-07
2.89379e-07
2.89666e-07
2.89953e-07
2.90242e-07
2.9053e-07
2.90819e-07
2.91109e-07
2.91399e-07
2.9169e-07
2.91981e-07
2.92273e-07
2.92566e-07
2.92859e-07
2.93152e-07
2.93446e-07
2.93741e-07
2.94036e-07
2.94332e-07
2.94629e-07
2.94926e-07
2.95223e-07
2.95521e-07
2.9582e-07
2.9612e-07
2.96419e-07
2.9672e-07
2.97021e-07
2.97323e-07
2.97625e-07
2.97928e-07
2.98231e-07
2.98536e-07
2.9884e-07
2.99146e-07
2.99452e-07
2.99758e-07
3.00065e-07
3.00373e-07
3.00682e-07
3.00991e-07
3.013e-07
3.01611e-07
3.01922e-07
3.02233e-07
3.02546e-07
3.02859e-07
3.03172e-07
3.03487e-07
3.03802e-07
3.04117e-07
3.04434e-07
3.04751e-07
3.05069e-07
3.05387e-07
3.05706e-07
3.06026e-07
3.06346e-07
3.06668e-07
3.0699e-07
3.07312e-07
3.07636e-07
3.0796e-07
3.08283e-07
3.08607e-07
3.08933e-07
3.0926e-07
3.09588e-07
3.09916e-07
3.10246e-07
3.10576e-07
3.10906e-07
3.11238e-07
3.1157e-07
3.11903e-07
3.12237e-07
3.12571e-07
3.12905e-07
3.1324e-07
3.13577e-07
3.13914e-07
3.14252e-07
3.14591e-07
3.14931e-07
3.15271e-07
3.15612e-07
3.15954e-07
3.16297e-07
3.1664e-07
3.16985e-07
3.1733e-07
3.17676e-07
3.18022e-07
3.1837e-07
3.18718e-07
3.19067e-07
3.19416e-07
3.19767e-07
3.20118e-07
3.2047e-07
3.20823e-07
3.21177e-07
3.21531e-07
3.21887e-07
3.22243e-07
3.226e-07
3.22958e-07
3.23316e-07
3.23676e-07
3.24036e-07
3.24397e-07
3.24759e-07
3.25121e-07
3.25485e-07
3.25849e-07
3.26215e-07
3.26581e-07
3.26948e-07
3.27316e-07
3.27685e-07
3.28055e-07
3.28425e-07
3.28797e-07
3.2917e-07
3.29544e-07
3.29918e-07
3.30294e-07
3.30671e-07
3.31049e-07
3.31428e-07
3.31808e-07
3.3219e-07
3.32573e-07
3.32957e-07
3.33342e-07
3.33729e-07
3.34118e-07
3.34507e-07
3.34899e-07
3.35292e-07
3.35687e-07
3.36084e-07
3.36483e-07
3.36883e-07
3.37286e-07
3.37692e-07
3.381e-07
3.3851e-07
3.38923e-07
3.39339e-07
3.39758e-07
3.40181e-07
3.40607e-07
3.41037e-07
3.41471e-07
3.41909e-07
3.42352e-07
3.428e-07
3.43253e-07
3.43712e-07
3.44177e-07
3.44648e-07
3.45127e-07
3.45613e-07
3.46107e-07
3.4661e-07
3.47122e-07
3.47644e-07
3.48177e-07
3.48721e-07
3.49278e-07
3.49848e-07
3.50432e-07
3.51031e-07
3.51647e-07
3.52281e-07
3.52933e-07
3.53605e-07
3.543e-07
3.55017e-07
3.55759e-07
3.56528e-07
3.57326e-07
3.58154e-07
3.59015e-07
3.59911e-07
3.60844e-07
3.61818e-07
3.62834e-07
3.63896e-07
3.65006e-07
3.66169e-07
3.67387e-07
3.68665e-07
3.70006e-07
3.71414e-07
3.72894e-07
3.7445e-07
3.76087e-07
3.77811e-07
3.79627e-07
3.8154e-07
3.83558e-07
3.85685e-07
3.87929e-07
3.90297e-07
3.92796e-07
3.95435e-07
3.9822e-07
4.01162e-07
4.04268e-07
4.07548e-07
4.11013e-07
4.14672e-07
4.18535e-07
4.22615e-07
4.26923e-07
4.3147e-07
4.36269e-07
4.41334e-07
4.46677e-07
4.52313e-07
4.58256e-07
4.64521e-07
4.71123e-07
4.78078e-07
4.85401e-07
4.9311e-07
5.01221e-07
5.09751e-07
5.18718e-07
5.28139e-07
5.38031e-07
5.48414e-07
5.59304e-07
5.7072e-07
5.82679e-07
5.95198e-07
6.08295e-07
6.21986e-07
6.36286e-07
6.51211e-07
6.66775e-07
6.82989e-07
6.99866e-07
7.17414e-07
7.35642e-07
7.54554e-07
7.74153e-07
7.9444e-07
8.1541e-07
8.37057e-07
8.59371e-07
8.82335e-07
9.0593e-07
9.30131e-07
9.54907e-07
9.80222e-07
1.00603e-06
1.03229e-06
1.05893e-06
1.0859e-06
1.11312e-06
1.14051e-06
1.16799e-06
1.19545e-06
1.22279e-06
1.2499e-06
1.27665e-06
1.30291e-06
1.32855e-06
1.35342e-06
1.37737e-06
1.40025e-06
1.42188e-06
1.4421e-06
1.46075e-06
1.47766e-06
1.49264e-06
1.50554e-06
1.51618e-06
1.5244e-06
1.53003e-06
1.53289e-06
1.53289e-06
1.52987e-06
1.5237e-06
1.51424e-06
1.5014e-06
1.48507e-06
1.46517e-06
1.44163e-06
1.41438e-06
1.38338e-06
1.34861e-06
1.31004e-06
1.2677e-06
1.22159e-06
1.17178e-06
1.11831e-06
1.06129e-06
1.00083e-06
9.37075e-07
8.70215e-07
8.00466e-07
7.28092e-07
6.53406e-07
5.76781e-07
4.98654e-07
4.19539e-07
3.40042e-07
2.60867e-07
1.82838e-07
1.06904e-07
3.41562e-08
)
;

boundaryField
{
    fixedWall
    {
        type            zeroGradient;
    }
    outlet
    {
        type            inletOutlet;
        inletValue      uniform 0;
        value           uniform 0;
    }
    defaultFaces
    {
        type            empty;
    }
}


// ************************************************************************* //
