/*--------------------------------*- C++ -*----------------------------------*\
| =========                 |                                                 |
| \\      /  F ield         | OpenFOAM: The Open Source CFD Toolbox           |
|  \\    /   O peration     | Version:  2406                                  |
|   \\  /    A nd           | Website:  www.openfoam.com                      |
|    \\/     M anipulation  |                                                 |
\*---------------------------------------------------------------------------*/
FoamFile
{
    version     2.0;
    format      ascii;
    arch        "LSB;label=32;scalar=64";
    class       volScalarField;
    location    "2.8";
    object      CO2;
}
// * * * * * * * * * * * * * * * * * * * * * * * * * * * * * * * * * * * * * //

dimensions      [0 0 0 0 0 0 0];

internalField   nonuniform List<scalar> 
1000
(
0.0709257
0.0709257
0.0709257
0.0709257
0.0709257
0.0709257
0.0709257
0.0709257
0.0709258
0.0709258
0.0709258
0.0709258
0.0709258
0.0709258
0.0709258
0.0709258
0.0709259
0.0709259
0.0709259
0.0709259
0.0709259
0.0709259
0.070926
0.070926
0.070926
0.070926
0.070926
0.070926
0.0709261
0.0709261
0.0709261
0.0709261
0.0709261
0.0709261
0.0709261
0.0709261
0.0709262
0.0709262
0.0709262
0.0709262
0.0709262
0.0709262
0.0709262
0.0709262
0.0709262
0.0709262
0.0709262
0.0709263
0.0709263
0.0709263
0.0709263
0.0709263
0.0709263
0.0709263
0.0709263
0.0709263
0.0709263
0.0709263
0.0709263
0.0709263
0.0709263
0.0709263
0.0709263
0.0709263
0.0709263
0.0709263
0.0709263
0.0709263
0.0709263
0.0709263
0.0709263
0.0709263
0.0709263
0.0709263
0.0709263
0.0709263
0.0709263
0.0709263
0.0709263
0.0709263
0.0709263
0.0709263
0.0709263
0.0709263
0.0709263
0.0709263
0.0709263
0.0709263
0.0709263
0.0709263
0.0709263
0.0709263
0.0709263
0.0709263
0.0709263
0.0709263
0.0709263
0.0709263
0.0709262
0.0709262
0.0709262
0.0709262
0.0709262
0.0709262
0.0709262
0.0709262
0.0709262
0.0709262
0.0709262
0.0709262
0.0709262
0.0709262
0.0709262
0.0709262
0.0709262
0.0709262
0.0709262
0.0709262
0.0709262
0.0709262
0.0709262
0.0709262
0.0709262
0.0709262
0.0709262
0.0709262
0.0709262
0.0709262
0.0709262
0.0709262
0.0709262
0.0709262
0.0709262
0.0709262
0.0709262
0.0709262
0.0709262
0.0709262
0.0709262
0.0709262
0.0709262
0.0709262
0.0709262
0.0709262
0.0709262
0.0709261
0.0709261
0.0709261
0.0709261
0.0709261
0.0709261
0.0709261
0.0709261
0.0709261
0.0709261
0.0709261
0.0709261
0.0709261
0.0709261
0.0709261
0.0709261
0.0709261
0.0709261
0.0709261
0.0709261
0.0709261
0.0709261
0.0709261
0.0709261
0.0709261
0.0709261
0.0709261
0.0709261
0.0709261
0.0709261
0.0709261
0.0709261
0.0709261
0.0709261
0.0709261
0.070926
0.070926
0.070926
0.070926
0.070926
0.070926
0.070926
0.070926
0.070926
0.070926
0.070926
0.070926
0.070926
0.070926
0.070926
0.070926
0.070926
0.070926
0.070926
0.070926
0.070926
0.070926
0.070926
0.070926
0.070926
0.070926
0.070926
0.070926
0.0709259
0.0709259
0.0709259
0.0709259
0.0709259
0.0709259
0.0709259
0.0709259
0.0709259
0.0709259
0.0709259
0.0709259
0.0709259
0.0709259
0.0709259
0.0709259
0.0709259
0.0709259
0.0709259
0.0709259
0.0709259
0.0709259
0.0709258
0.0709258
0.0709258
0.0709258
0.0709258
0.0709258
0.0709258
0.0709258
0.0709258
0.0709258
0.0709258
0.0709258
0.0709258
0.0709258
0.0709258
0.0709258
0.0709258
0.0709258
0.0709257
0.0709257
0.0709257
0.0709257
0.0709257
0.0709257
0.0709257
0.0709257
0.0709257
0.0709257
0.0709257
0.0709257
0.0709257
0.0709257
0.0709257
0.0709257
0.0709256
0.0709256
0.0709256
0.0709256
0.0709256
0.0709256
0.0709256
0.0709256
0.0709256
0.0709256
0.0709256
0.0709256
0.0709256
0.0709255
0.0709255
0.0709255
0.0709255
0.0709255
0.0709255
0.0709255
0.0709255
0.0709255
0.0709255
0.0709255
0.0709254
0.0709254
0.0709254
0.0709254
0.0709254
0.0709254
0.0709254
0.0709254
0.0709254
0.0709253
0.0709253
0.0709253
0.0709253
0.0709253
0.0709253
0.0709253
0.0709253
0.0709253
0.0709252
0.0709252
0.0709252
0.0709252
0.0709252
0.0709252
0.0709252
0.0709251
0.0709251
0.0709251
0.0709251
0.0709251
0.0709251
0.0709251
0.070925
0.070925
0.070925
0.070925
0.070925
0.070925
0.0709249
0.0709249
0.0709249
0.0709249
0.0709249
0.0709248
0.0709248
0.0709248
0.0709248
0.0709248
0.0709247
0.0709247
0.0709247
0.0709247
0.0709247
0.0709246
0.0709246
0.0709246
0.0709246
0.0709245
0.0709245
0.0709245
0.0709244
0.0709244
0.0709244
0.0709244
0.0709243
0.0709243
0.0709243
0.0709242
0.0709242
0.0709242
0.0709241
0.0709241
0.070924
0.070924
0.070924
0.0709239
0.0709239
0.0709238
0.0709238
0.0709237
0.0709237
0.0709237
0.0709236
0.0709235
0.0709235
0.0709234
0.0709234
0.0709233
0.0709233
0.0709232
0.0709231
0.0709231
0.070923
0.0709229
0.0709228
0.0709228
0.0709227
0.0709226
0.0709225
0.0709224
0.0709223
0.0709222
0.0709221
0.070922
0.0709219
0.0709218
0.0709217
0.0709215
0.0709214
0.0709212
0.0709211
0.0709209
0.0709207
0.0709206
0.0709204
0.0709202
0.07092
0.0709197
0.0709195
0.0709192
0.0709189
0.0709186
0.0709183
0.0709179
0.0709176
0.0709171
0.0709167
0.0709162
0.0709156
0.070915
0.0709143
0.0709136
0.0709127
0.0709118
0.0709107
0.0709094
0.070908
0.0709063
0.0709043
0.070902
0.0708991
0.0708956
0.0708912
0.0708855
0.0708781
0.070868
0.0708538
0.0708321
0.070796
0.0707293
0.070591
0.0702493
0.0691554
0.0647166
0.0324249
0.015556
0.00754564
0.00369348
0.00182018
0.000901183
0.000447502
0.000222605
0.000110837
5.5211e-05
2.75063e-05
1.37035e-05
6.82644e-06
3.40023e-06
1.69347e-06
8.43368e-07
4.20013e-07
2.092e-07
1.04224e-07
5.19662e-08
2.59275e-08
1.29733e-08
6.52997e-09
3.29756e-09
1.68142e-09
9.87256e-10
6.92789e-10
4.32303e-10
2.70803e-10
1.92066e-10
1.51876e-10
1.35207e-10
1.25513e-10
1.20124e-10
1.17018e-10
1.15258e-10
1.14454e-10
1.1389e-10
1.13642e-10
1.13415e-10
1.13315e-10
1.13257e-10
1.13215e-10
1.13197e-10
1.13185e-10
1.13179e-10
1.13175e-10
1.13173e-10
1.13172e-10
1.13171e-10
1.13171e-10
1.13171e-10
1.13171e-10
1.13171e-10
1.13171e-10
1.13171e-10
1.13172e-10
1.13172e-10
1.13172e-10
1.13172e-10
1.13172e-10
1.13173e-10
1.13173e-10
1.13173e-10
1.13174e-10
1.13174e-10
1.13174e-10
1.13175e-10
1.13175e-10
1.13175e-10
1.13175e-10
1.13176e-10
1.13176e-10
1.13176e-10
1.13176e-10
1.13177e-10
1.13177e-10
1.13177e-10
1.13177e-10
1.13178e-10
1.13178e-10
1.13178e-10
1.13179e-10
1.13179e-10
1.13179e-10
1.13179e-10
1.1318e-10
1.1318e-10
1.1318e-10
1.13181e-10
1.13181e-10
1.13181e-10
1.13181e-10
1.13182e-10
1.13182e-10
1.13182e-10
1.13183e-10
1.13183e-10
1.13183e-10
1.13183e-10
1.13184e-10
1.13184e-10
1.13184e-10
1.13184e-10
1.13185e-10
1.13185e-10
1.13185e-10
1.13186e-10
1.13186e-10
1.13186e-10
1.13186e-10
1.13187e-10
1.13187e-10
1.13187e-10
1.13187e-10
1.13188e-10
1.13188e-10
1.13188e-10
1.13189e-10
1.13189e-10
1.13189e-10
1.13189e-10
1.1319e-10
1.1319e-10
1.1319e-10
1.1319e-10
1.13191e-10
1.13191e-10
1.13191e-10
1.13191e-10
1.13192e-10
1.13192e-10
1.13192e-10
1.13193e-10
1.13193e-10
1.13193e-10
1.13193e-10
1.13194e-10
1.13194e-10
1.13194e-10
1.13195e-10
1.13195e-10
1.13195e-10
1.13195e-10
1.13196e-10
1.13196e-10
1.13196e-10
1.13196e-10
1.13197e-10
1.13197e-10
1.13197e-10
1.13198e-10
1.13198e-10
1.13198e-10
1.13198e-10
1.13199e-10
1.13199e-10
1.13199e-10
1.132e-10
1.132e-10
1.132e-10
1.132e-10
1.13201e-10
1.13201e-10
1.13201e-10
1.13202e-10
1.13202e-10
1.13202e-10
1.13202e-10
1.13203e-10
1.13203e-10
1.13203e-10
1.13203e-10
1.13204e-10
1.13204e-10
1.13204e-10
1.13205e-10
1.13205e-10
1.13205e-10
1.13205e-10
1.13206e-10
1.13206e-10
1.13206e-10
1.13207e-10
1.13207e-10
1.13207e-10
1.13207e-10
1.13208e-10
1.13208e-10
1.13208e-10
1.13209e-10
1.13209e-10
1.13209e-10
1.13209e-10
1.1321e-10
1.1321e-10
1.1321e-10
1.13211e-10
1.13211e-10
1.13211e-10
1.13211e-10
1.13212e-10
1.13212e-10
1.13212e-10
1.13212e-10
1.13213e-10
1.13213e-10
1.13213e-10
1.13214e-10
1.13214e-10
1.13214e-10
1.13215e-10
1.13215e-10
1.13215e-10
1.13216e-10
1.13216e-10
1.13216e-10
1.13217e-10
1.13217e-10
1.13217e-10
1.13217e-10
1.13218e-10
1.13218e-10
1.13218e-10
1.13218e-10
1.13219e-10
1.13219e-10
1.13219e-10
1.1322e-10
1.1322e-10
1.1322e-10
1.1322e-10
1.13221e-10
1.13221e-10
1.13221e-10
1.13222e-10
1.13222e-10
1.13222e-10
1.13222e-10
1.13223e-10
1.13223e-10
1.13223e-10
1.13224e-10
1.13224e-10
1.13224e-10
1.13224e-10
1.13225e-10
1.13225e-10
1.13225e-10
1.13226e-10
1.13226e-10
1.13226e-10
1.13227e-10
1.13227e-10
1.13227e-10
1.13228e-10
1.13228e-10
1.13228e-10
1.13228e-10
1.13229e-10
1.13229e-10
1.13229e-10
1.1323e-10
1.1323e-10
1.1323e-10
1.1323e-10
1.13231e-10
1.13231e-10
1.13231e-10
1.13232e-10
1.13232e-10
1.13232e-10
1.13232e-10
1.13233e-10
1.13233e-10
1.13233e-10
1.13234e-10
1.13234e-10
1.13234e-10
1.13235e-10
1.13235e-10
1.13235e-10
1.13236e-10
1.13236e-10
1.13236e-10
1.13236e-10
1.13237e-10
1.13237e-10
1.13237e-10
1.13238e-10
1.13238e-10
1.13238e-10
1.13238e-10
1.13239e-10
1.13239e-10
1.13239e-10
1.1324e-10
1.1324e-10
1.1324e-10
1.1324e-10
1.13241e-10
1.13241e-10
1.13241e-10
1.13242e-10
1.13242e-10
1.13242e-10
1.13243e-10
1.13243e-10
1.13243e-10
1.13244e-10
1.13244e-10
1.13244e-10
1.13244e-10
1.13245e-10
1.13245e-10
1.13245e-10
1.13246e-10
1.13246e-10
1.13246e-10
1.13246e-10
1.13247e-10
1.13247e-10
1.13247e-10
1.13248e-10
1.13248e-10
1.13248e-10
1.13249e-10
1.13249e-10
1.13249e-10
1.13249e-10
1.1325e-10
1.1325e-10
1.1325e-10
1.13251e-10
1.13251e-10
1.13251e-10
1.13252e-10
1.13252e-10
1.13252e-10
1.13253e-10
1.13253e-10
1.13253e-10
1.13254e-10
1.13254e-10
1.13254e-10
1.13254e-10
1.13255e-10
1.13255e-10
1.13255e-10
1.13256e-10
1.13256e-10
1.13256e-10
1.13256e-10
1.13257e-10
1.13257e-10
1.13257e-10
1.13258e-10
1.13258e-10
1.13258e-10
1.13259e-10
1.13259e-10
1.13259e-10
1.1326e-10
1.1326e-10
1.1326e-10
1.1326e-10
1.13261e-10
1.13261e-10
1.13261e-10
1.13262e-10
1.13262e-10
1.13262e-10
1.13262e-10
1.13263e-10
1.13263e-10
1.13263e-10
1.13264e-10
1.13264e-10
1.13264e-10
1.13265e-10
1.13265e-10
1.13265e-10
1.13266e-10
1.13266e-10
1.13266e-10
1.13266e-10
1.13267e-10
1.13267e-10
1.13267e-10
1.13268e-10
1.13268e-10
1.13268e-10
1.13269e-10
1.13269e-10
1.13269e-10
1.13269e-10
1.1327e-10
1.1327e-10
1.1327e-10
1.13271e-10
1.13271e-10
1.13271e-10
1.13272e-10
1.13272e-10
1.13272e-10
1.13273e-10
1.13273e-10
1.13273e-10
1.13274e-10
1.13274e-10
1.13274e-10
1.13274e-10
1.13275e-10
1.13275e-10
1.13275e-10
1.13276e-10
1.13276e-10
1.13276e-10
1.13277e-10
1.13277e-10
1.13277e-10
1.13277e-10
1.13278e-10
1.13278e-10
1.13278e-10
1.13279e-10
1.13279e-10
1.13279e-10
1.1328e-10
1.1328e-10
1.1328e-10
1.13281e-10
1.13281e-10
1.13281e-10
1.13281e-10
1.13282e-10
1.13282e-10
1.13282e-10
1.13283e-10
1.13283e-10
1.13283e-10
1.13284e-10
1.13284e-10
1.13284e-10
1.13285e-10
1.13285e-10
1.13285e-10
1.13285e-10
1.13286e-10
1.13286e-10
1.13286e-10
1.13287e-10
1.13287e-10
1.13287e-10
1.13288e-10
1.13288e-10
1.13288e-10
1.13289e-10
1.13289e-10
1.13289e-10
1.13289e-10
1.1329e-10
1.1329e-10
1.1329e-10
1.13291e-10
1.13291e-10
1.13291e-10
1.13292e-10
1.13292e-10
1.13292e-10
1.13292e-10
1.13293e-10
1.13293e-10
1.13293e-10
1.13294e-10
1.13294e-10
1.13294e-10
1.13295e-10
1.13295e-10
1.13295e-10
1.13296e-10
1.13296e-10
1.13296e-10
1.13297e-10
1.13297e-10
1.13297e-10
1.13298e-10
1.13298e-10
1.13298e-10
1.13299e-10
1.13299e-10
1.13299e-10
1.133e-10
1.133e-10
1.133e-10
1.13301e-10
1.13301e-10
1.13301e-10
1.13301e-10
1.13302e-10
1.13302e-10
1.13302e-10
1.13303e-10
1.13303e-10
1.13303e-10
1.13303e-10
1.13304e-10
1.13304e-10
1.13304e-10
1.13305e-10
1.13305e-10
1.13305e-10
1.13306e-10
1.13306e-10
1.13306e-10
1.13306e-10
1.13307e-10
1.13307e-10
1.13307e-10
1.13308e-10
1.13308e-10
1.13308e-10
1.13309e-10
1.13309e-10
1.13309e-10
1.1331e-10
1.1331e-10
1.1331e-10
1.13311e-10
1.13311e-10
1.13311e-10
1.13311e-10
1.13312e-10
1.13312e-10
1.13313e-10
1.13313e-10
1.13313e-10
1.13314e-10
1.13314e-10
1.13314e-10
1.13315e-10
1.13315e-10
1.13315e-10
1.13315e-10
1.13316e-10
1.13316e-10
1.13316e-10
1.13317e-10
1.13317e-10
1.13317e-10
1.13318e-10
1.13318e-10
1.13318e-10
1.13319e-10
1.13319e-10
1.1332e-10
1.1332e-10
1.1332e-10
)
;

boundaryField
{
    fixedWall
    {
        type            zeroGradient;
    }
    outlet
    {
        type            inletOutlet;
        inletValue      uniform 0;
        value           uniform 1.1332e-10;
    }
    defaultFaces
    {
        type            empty;
    }
}


// ************************************************************************* //
