/*--------------------------------*- C++ -*----------------------------------*\
| =========                 |                                                 |
| \\      /  F ield         | OpenFOAM: The Open Source CFD Toolbox           |
|  \\    /   O peration     | Version:  2406                                  |
|   \\  /    A nd           | Website:  www.openfoam.com                      |
|    \\/     M anipulation  |                                                 |
\*---------------------------------------------------------------------------*/
FoamFile
{
    version     2.0;
    format      ascii;
    arch        "LSB;label=32;scalar=64";
    class       volScalarField;
    location    "2.8";
    object      H2O;
}
// * * * * * * * * * * * * * * * * * * * * * * * * * * * * * * * * * * * * * //

dimensions      [0 0 0 0 0 0 0];

internalField   nonuniform List<scalar> 
1000
(
0.0580662
0.0580662
0.0580663
0.0580663
0.0580663
0.0580663
0.0580663
0.0580663
0.0580663
0.0580663
0.0580663
0.0580663
0.0580663
0.0580663
0.0580664
0.0580664
0.0580664
0.0580664
0.0580664
0.0580664
0.0580664
0.0580664
0.0580665
0.0580665
0.0580665
0.0580665
0.0580665
0.0580665
0.0580665
0.0580665
0.0580666
0.0580666
0.0580666
0.0580666
0.0580666
0.0580666
0.0580666
0.0580666
0.0580666
0.0580666
0.0580667
0.0580667
0.0580667
0.0580667
0.0580667
0.0580667
0.0580667
0.0580667
0.0580667
0.0580667
0.0580667
0.0580667
0.0580667
0.0580667
0.0580667
0.0580667
0.0580667
0.0580667
0.0580667
0.0580667
0.0580667
0.0580667
0.0580667
0.0580667
0.0580667
0.0580667
0.0580667
0.0580667
0.0580667
0.0580667
0.0580667
0.0580667
0.0580667
0.0580667
0.0580667
0.0580667
0.0580667
0.0580667
0.0580667
0.0580667
0.0580667
0.0580667
0.0580667
0.0580667
0.0580667
0.0580667
0.0580667
0.0580667
0.0580667
0.0580667
0.0580667
0.0580667
0.0580667
0.0580667
0.0580667
0.0580667
0.0580667
0.0580667
0.0580667
0.0580667
0.0580667
0.0580667
0.0580667
0.0580667
0.0580667
0.0580667
0.0580667
0.0580667
0.0580667
0.0580667
0.0580667
0.0580667
0.0580667
0.0580667
0.0580667
0.0580667
0.0580667
0.0580667
0.0580667
0.0580667
0.0580667
0.0580667
0.0580667
0.0580667
0.0580667
0.0580667
0.0580666
0.0580666
0.0580666
0.0580666
0.0580666
0.0580666
0.0580666
0.0580666
0.0580666
0.0580666
0.0580666
0.0580666
0.0580666
0.0580666
0.0580666
0.0580666
0.0580666
0.0580666
0.0580666
0.0580666
0.0580666
0.0580666
0.0580666
0.0580666
0.0580666
0.0580666
0.0580666
0.0580666
0.0580666
0.0580666
0.0580666
0.0580666
0.0580666
0.0580666
0.0580666
0.0580666
0.0580666
0.0580666
0.0580666
0.0580666
0.0580666
0.0580666
0.0580666
0.0580666
0.0580666
0.0580666
0.0580666
0.0580666
0.0580665
0.0580665
0.0580665
0.0580665
0.0580665
0.0580665
0.0580665
0.0580665
0.0580665
0.0580665
0.0580665
0.0580665
0.0580665
0.0580665
0.0580665
0.0580665
0.0580665
0.0580665
0.0580665
0.0580665
0.0580665
0.0580665
0.0580665
0.0580665
0.0580665
0.0580665
0.0580665
0.0580665
0.0580665
0.0580665
0.0580665
0.0580665
0.0580665
0.0580665
0.0580664
0.0580664
0.0580664
0.0580664
0.0580664
0.0580664
0.0580664
0.0580664
0.0580664
0.0580664
0.0580664
0.0580664
0.0580664
0.0580664
0.0580664
0.0580664
0.0580664
0.0580664
0.0580664
0.0580664
0.0580664
0.0580664
0.0580664
0.0580664
0.0580664
0.0580664
0.0580664
0.0580663
0.0580663
0.0580663
0.0580663
0.0580663
0.0580663
0.0580663
0.0580663
0.0580663
0.0580663
0.0580663
0.0580663
0.0580663
0.0580663
0.0580663
0.0580663
0.0580663
0.0580663
0.0580663
0.0580663
0.0580663
0.0580662
0.0580662
0.0580662
0.0580662
0.0580662
0.0580662
0.0580662
0.0580662
0.0580662
0.0580662
0.0580662
0.0580662
0.0580662
0.0580662
0.0580662
0.0580662
0.0580662
0.0580661
0.0580661
0.0580661
0.0580661
0.0580661
0.0580661
0.0580661
0.0580661
0.0580661
0.0580661
0.0580661
0.0580661
0.0580661
0.0580661
0.058066
0.058066
0.058066
0.058066
0.058066
0.058066
0.058066
0.058066
0.058066
0.058066
0.058066
0.058066
0.0580659
0.0580659
0.0580659
0.0580659
0.0580659
0.0580659
0.0580659
0.0580659
0.0580659
0.0580659
0.0580658
0.0580658
0.0580658
0.0580658
0.0580658
0.0580658
0.0580658
0.0580658
0.0580657
0.0580657
0.0580657
0.0580657
0.0580657
0.0580657
0.0580657
0.0580657
0.0580656
0.0580656
0.0580656
0.0580656
0.0580656
0.0580656
0.0580655
0.0580655
0.0580655
0.0580655
0.0580655
0.0580655
0.0580654
0.0580654
0.0580654
0.0580654
0.0580654
0.0580653
0.0580653
0.0580653
0.0580653
0.0580653
0.0580652
0.0580652
0.0580652
0.0580652
0.0580651
0.0580651
0.0580651
0.0580651
0.058065
0.058065
0.058065
0.058065
0.0580649
0.0580649
0.0580649
0.0580648
0.0580648
0.0580648
0.0580647
0.0580647
0.0580646
0.0580646
0.0580646
0.0580645
0.0580645
0.0580644
0.0580644
0.0580644
0.0580643
0.0580643
0.0580642
0.0580641
0.0580641
0.058064
0.058064
0.0580639
0.0580638
0.0580638
0.0580637
0.0580636
0.0580636
0.0580635
0.0580634
0.0580633
0.0580632
0.0580631
0.058063
0.0580629
0.0580628
0.0580627
0.0580626
0.0580625
0.0580623
0.0580622
0.058062
0.0580619
0.0580617
0.0580615
0.0580614
0.0580612
0.0580609
0.0580607
0.0580605
0.0580602
0.0580599
0.0580596
0.0580592
0.0580589
0.0580585
0.058058
0.0580575
0.0580569
0.0580563
0.0580556
0.0580548
0.0580539
0.0580529
0.0580517
0.0580504
0.0580487
0.0580468
0.0580445
0.0580416
0.058038
0.0580334
0.0580273
0.058019
0.0580074
0.0579896
0.0579601
0.0579054
0.0577923
0.0575125
0.0566169
0.0529829
0.0265459
0.0127356
0.00617755
0.00302382
0.00149017
0.000737791
0.000366366
0.000182245
9.07411e-05
4.52007e-05
2.25191e-05
1.1219e-05
5.58875e-06
2.78373e-06
1.38643e-06
6.90458e-07
3.43861e-07
1.7127e-07
8.53275e-08
4.25442e-08
2.12266e-08
1.06212e-08
5.34603e-09
2.69968e-09
1.37656e-09
8.08258e-10
5.6718e-10
3.53923e-10
2.21704e-10
1.57242e-10
1.2434e-10
1.10692e-10
1.02756e-10
9.83446e-11
9.58017e-11
9.43604e-11
9.37022e-11
9.32411e-11
9.3038e-11
9.28521e-11
9.27699e-11
9.27226e-11
9.26883e-11
9.26737e-11
9.26632e-11
9.26583e-11
9.26556e-11
9.26536e-11
9.26526e-11
9.2652e-11
9.26518e-11
9.26518e-11
9.26519e-11
9.2652e-11
9.26522e-11
9.26523e-11
9.26526e-11
9.26528e-11
9.26529e-11
9.26532e-11
9.26533e-11
9.26535e-11
9.26538e-11
9.26541e-11
9.26543e-11
9.26546e-11
9.26548e-11
9.26551e-11
9.26553e-11
9.26555e-11
9.26558e-11
9.26559e-11
9.26562e-11
9.26563e-11
9.26566e-11
9.26568e-11
9.26569e-11
9.26571e-11
9.26574e-11
9.26577e-11
9.26579e-11
9.26581e-11
9.26583e-11
9.26585e-11
9.26588e-11
9.2659e-11
9.26592e-11
9.26594e-11
9.26596e-11
9.26599e-11
9.26601e-11
9.26603e-11
9.26606e-11
9.26608e-11
9.26611e-11
9.26613e-11
9.26616e-11
9.26618e-11
9.2662e-11
9.26622e-11
9.26624e-11
9.26626e-11
9.26628e-11
9.26631e-11
9.26634e-11
9.26636e-11
9.26638e-11
9.26641e-11
9.26642e-11
9.26645e-11
9.26647e-11
9.26649e-11
9.26652e-11
9.26654e-11
9.26655e-11
9.26658e-11
9.2666e-11
9.26662e-11
9.26665e-11
9.26667e-11
9.26668e-11
9.26672e-11
9.26673e-11
9.26675e-11
9.26678e-11
9.2668e-11
9.26682e-11
9.26685e-11
9.26687e-11
9.26689e-11
9.26691e-11
9.26694e-11
9.26696e-11
9.26698e-11
9.267e-11
9.26703e-11
9.26705e-11
9.26706e-11
9.26709e-11
9.26712e-11
9.26715e-11
9.26717e-11
9.26719e-11
9.26721e-11
9.26723e-11
9.26725e-11
9.26728e-11
9.2673e-11
9.26732e-11
9.26734e-11
9.26736e-11
9.26739e-11
9.26742e-11
9.26744e-11
9.26746e-11
9.26749e-11
9.26751e-11
9.26753e-11
9.26755e-11
9.26758e-11
9.2676e-11
9.26762e-11
9.26765e-11
9.26767e-11
9.26769e-11
9.26771e-11
9.26774e-11
9.26776e-11
9.26778e-11
9.2678e-11
9.26783e-11
9.26785e-11
9.26787e-11
9.26789e-11
9.26792e-11
9.26794e-11
9.26796e-11
9.26799e-11
9.26801e-11
9.26803e-11
9.26805e-11
9.26807e-11
9.26811e-11
9.26813e-11
9.26815e-11
9.26817e-11
9.26819e-11
9.26822e-11
9.26825e-11
9.26826e-11
9.26829e-11
9.26831e-11
9.26833e-11
9.26836e-11
9.26837e-11
9.2684e-11
9.26843e-11
9.26845e-11
9.26847e-11
9.26849e-11
9.26852e-11
9.26854e-11
9.26856e-11
9.26858e-11
9.2686e-11
9.26863e-11
9.26865e-11
9.26867e-11
9.2687e-11
9.26872e-11
9.26874e-11
9.26878e-11
9.26881e-11
9.26884e-11
9.26887e-11
9.2689e-11
9.26892e-11
9.26894e-11
9.26897e-11
9.26899e-11
9.26901e-11
9.26903e-11
9.26905e-11
9.26908e-11
9.26909e-11
9.26912e-11
9.26915e-11
9.26917e-11
9.2692e-11
9.26922e-11
9.26924e-11
9.26926e-11
9.26928e-11
9.26931e-11
9.26932e-11
9.26935e-11
9.26938e-11
9.2694e-11
9.26943e-11
9.26945e-11
9.26947e-11
9.26949e-11
9.26951e-11
9.26954e-11
9.26956e-11
9.26958e-11
9.26961e-11
9.26964e-11
9.26966e-11
9.26967e-11
9.2697e-11
9.26973e-11
9.26976e-11
9.26978e-11
9.26981e-11
9.26985e-11
9.26987e-11
9.26989e-11
9.26991e-11
9.26992e-11
9.26996e-11
9.26998e-11
9.27001e-11
9.27003e-11
9.27005e-11
9.27007e-11
9.2701e-11
9.27012e-11
9.27014e-11
9.27016e-11
9.27019e-11
9.27022e-11
9.27024e-11
9.27026e-11
9.27029e-11
9.27031e-11
9.27034e-11
9.27036e-11
9.27039e-11
9.27042e-11
9.27044e-11
9.27047e-11
9.27049e-11
9.27051e-11
9.27054e-11
9.27056e-11
9.27059e-11
9.27061e-11
9.27064e-11
9.27066e-11
9.27068e-11
9.2707e-11
9.27073e-11
9.27075e-11
9.27078e-11
9.27081e-11
9.27082e-11
9.27085e-11
9.27087e-11
9.2709e-11
9.27092e-11
9.27095e-11
9.27097e-11
9.271e-11
9.27103e-11
9.27105e-11
9.27108e-11
9.2711e-11
9.27112e-11
9.27115e-11
9.27117e-11
9.27119e-11
9.27122e-11
9.27125e-11
9.27127e-11
9.27129e-11
9.27131e-11
9.27134e-11
9.27137e-11
9.27139e-11
9.27141e-11
9.27144e-11
9.27146e-11
9.27148e-11
9.27151e-11
9.27154e-11
9.27156e-11
9.27159e-11
9.27161e-11
9.27163e-11
9.27165e-11
9.27168e-11
9.27171e-11
9.27173e-11
9.27176e-11
9.27178e-11
9.27181e-11
9.27183e-11
9.27185e-11
9.27188e-11
9.27191e-11
9.27193e-11
9.27197e-11
9.27199e-11
9.272e-11
9.27204e-11
9.27206e-11
9.27207e-11
9.2721e-11
9.27213e-11
9.27216e-11
9.27217e-11
9.2722e-11
9.27222e-11
9.27226e-11
9.27228e-11
9.27231e-11
9.27234e-11
9.27236e-11
9.27238e-11
9.27241e-11
9.27243e-11
9.27246e-11
9.27247e-11
9.2725e-11
9.27253e-11
9.27255e-11
9.27258e-11
9.2726e-11
9.27263e-11
9.27265e-11
9.27267e-11
9.2727e-11
9.27272e-11
9.27274e-11
9.27278e-11
9.2728e-11
9.27283e-11
9.27285e-11
9.27288e-11
9.2729e-11
9.27292e-11
9.27295e-11
9.27296e-11
9.27299e-11
9.27302e-11
9.27305e-11
9.27307e-11
9.2731e-11
9.27312e-11
9.27314e-11
9.27317e-11
9.2732e-11
9.27323e-11
9.27325e-11
9.27327e-11
9.27329e-11
9.27332e-11
9.27334e-11
9.27337e-11
9.2734e-11
9.27342e-11
9.27344e-11
9.27346e-11
9.27348e-11
9.27352e-11
9.27354e-11
9.27357e-11
9.2736e-11
9.27362e-11
9.27365e-11
9.27366e-11
9.2737e-11
9.27372e-11
9.27374e-11
9.27378e-11
9.2738e-11
9.27383e-11
9.27385e-11
9.27387e-11
9.2739e-11
9.27393e-11
9.27395e-11
9.27398e-11
9.274e-11
9.27403e-11
9.27404e-11
9.27407e-11
9.2741e-11
9.27412e-11
9.27414e-11
9.27418e-11
9.2742e-11
9.27423e-11
9.27425e-11
9.27427e-11
9.2743e-11
9.27432e-11
9.27435e-11
9.27438e-11
9.2744e-11
9.27443e-11
9.27446e-11
9.27448e-11
9.2745e-11
9.27453e-11
9.27456e-11
9.27458e-11
9.27461e-11
9.27463e-11
9.27466e-11
9.27468e-11
9.27471e-11
9.27473e-11
9.27476e-11
9.27478e-11
9.2748e-11
9.27483e-11
9.27485e-11
9.27488e-11
9.2749e-11
9.27493e-11
9.27495e-11
9.27497e-11
9.275e-11
9.27503e-11
9.27505e-11
9.27508e-11
9.27509e-11
9.27513e-11
9.27515e-11
9.27518e-11
9.2752e-11
9.27523e-11
9.27525e-11
9.27527e-11
9.27531e-11
9.27532e-11
9.27536e-11
9.27538e-11
9.27542e-11
9.27544e-11
9.27547e-11
9.2755e-11
9.27552e-11
9.27556e-11
9.27558e-11
9.27561e-11
9.27563e-11
9.27566e-11
9.27568e-11
9.27571e-11
9.27574e-11
9.27576e-11
9.27579e-11
9.27581e-11
9.27584e-11
9.27586e-11
9.27587e-11
9.27591e-11
9.27593e-11
9.27596e-11
9.27598e-11
9.276e-11
9.27603e-11
9.27605e-11
9.27607e-11
9.27611e-11
9.27612e-11
9.27616e-11
9.27618e-11
9.27621e-11
9.27623e-11
9.27625e-11
9.27628e-11
9.2763e-11
9.27632e-11
9.27635e-11
9.27637e-11
9.27639e-11
9.27643e-11
9.27645e-11
9.27648e-11
9.27651e-11
9.27654e-11
9.27656e-11
9.27659e-11
9.27662e-11
9.27664e-11
9.27667e-11
9.2767e-11
9.27671e-11
9.27674e-11
9.27676e-11
9.2768e-11
9.27683e-11
9.27685e-11
9.27689e-11
9.27691e-11
9.27694e-11
9.27696e-11
9.27699e-11
9.27701e-11
9.27703e-11
9.27706e-11
9.27709e-11
9.27712e-11
9.27714e-11
9.27717e-11
9.2772e-11
9.27723e-11
9.27726e-11
9.27729e-11
9.27731e-11
9.27734e-11
9.27738e-11
9.27741e-11
9.27745e-11
)
;

boundaryField
{
    fixedWall
    {
        type            zeroGradient;
    }
    outlet
    {
        type            inletOutlet;
        inletValue      uniform 0;
        value           uniform 9.27745e-11;
    }
    defaultFaces
    {
        type            empty;
    }
}


// ************************************************************************* //
