/*--------------------------------*- C++ -*----------------------------------*\
| =========                 |                                                 |
| \\      /  F ield         | OpenFOAM: The Open Source CFD Toolbox           |
|  \\    /   O peration     | Version:  2406                                  |
|   \\  /    A nd           | Website:  www.openfoam.com                      |
|    \\/     M anipulation  |                                                 |
\*---------------------------------------------------------------------------*/
FoamFile
{
    version     2.0;
    format      ascii;
    arch        "LSB;label=32;scalar=64";
    class       volScalarField;
    location    "2.8";
    object      O2;
}
// * * * * * * * * * * * * * * * * * * * * * * * * * * * * * * * * * * * * * //

dimensions      [0 0 0 0 0 0 0];

internalField   nonuniform List<scalar> 
1000
(
1.66944e-06
1.66597e-06
1.66001e-06
1.65207e-06
1.64247e-06
1.6314e-06
1.61901e-06
1.60539e-06
1.59064e-06
1.57483e-06
1.558e-06
1.54021e-06
1.52153e-06
1.502e-06
1.48168e-06
1.46064e-06
1.43894e-06
1.41666e-06
1.39387e-06
1.37066e-06
1.34713e-06
1.32335e-06
1.29944e-06
1.27548e-06
1.25157e-06
1.22782e-06
1.2043e-06
1.18112e-06
1.15835e-06
1.13608e-06
1.11436e-06
1.09327e-06
1.07286e-06
1.05318e-06
1.03426e-06
1.01614e-06
9.98832e-07
9.82364e-07
9.66743e-07
9.5197e-07
9.38046e-07
9.24962e-07
9.12708e-07
9.01268e-07
8.90623e-07
8.80754e-07
8.71634e-07
8.63241e-07
8.55545e-07
8.4852e-07
8.42136e-07
8.36364e-07
8.31176e-07
8.26541e-07
8.2243e-07
8.18816e-07
8.15669e-07
8.12963e-07
8.10672e-07
8.08769e-07
8.0723e-07
8.06031e-07
8.05149e-07
8.04565e-07
8.04257e-07
8.04203e-07
8.04385e-07
8.04787e-07
8.05393e-07
8.06186e-07
8.07153e-07
8.0828e-07
8.09554e-07
8.10964e-07
8.12498e-07
8.14147e-07
8.159e-07
8.1775e-07
8.19688e-07
8.21706e-07
8.23798e-07
8.25958e-07
8.2818e-07
8.30458e-07
8.32788e-07
8.35166e-07
8.37588e-07
8.40049e-07
8.42548e-07
8.4508e-07
8.47644e-07
8.50238e-07
8.52858e-07
8.55503e-07
8.58173e-07
8.60864e-07
8.63576e-07
8.66308e-07
8.69054e-07
8.71795e-07
8.74586e-07
8.77394e-07
8.80218e-07
8.83058e-07
8.85912e-07
8.88782e-07
8.91665e-07
8.94564e-07
8.97476e-07
9.00403e-07
9.03345e-07
9.06301e-07
9.09272e-07
9.12258e-07
9.15258e-07
9.18274e-07
9.21305e-07
9.24351e-07
9.27413e-07
9.30491e-07
9.33585e-07
9.36695e-07
9.39822e-07
9.42966e-07
9.46127e-07
9.49305e-07
9.52501e-07
9.55715e-07
9.58948e-07
9.62199e-07
9.65469e-07
9.68759e-07
9.72068e-07
9.75398e-07
9.78748e-07
9.82118e-07
9.8551e-07
9.88923e-07
9.92357e-07
9.95814e-07
9.99294e-07
1.0028e-06
1.00632e-06
1.00987e-06
1.01344e-06
1.01704e-06
1.02065e-06
1.02426e-06
1.02794e-06
1.03164e-06
1.03537e-06
1.03913e-06
1.04291e-06
1.04672e-06
1.05055e-06
1.05441e-06
1.0583e-06
1.06221e-06
1.06616e-06
1.07013e-06
1.07413e-06
1.07815e-06
1.08216e-06
1.08625e-06
1.09037e-06
1.09451e-06
1.09869e-06
1.1029e-06
1.10715e-06
1.11142e-06
1.11573e-06
1.12007e-06
1.12445e-06
1.12886e-06
1.1333e-06
1.13778e-06
1.14229e-06
1.14684e-06
1.15142e-06
1.15604e-06
1.1607e-06
1.1654e-06
1.17013e-06
1.1749e-06
1.17971e-06
1.18456e-06
1.18945e-06
1.19438e-06
1.19935e-06
1.20436e-06
1.20942e-06
1.21451e-06
1.21965e-06
1.22484e-06
1.23006e-06
1.23534e-06
1.24065e-06
1.24602e-06
1.25143e-06
1.25688e-06
1.26239e-06
1.26794e-06
1.27354e-06
1.27919e-06
1.28489e-06
1.29064e-06
1.29644e-06
1.3023e-06
1.3082e-06
1.31416e-06
1.32018e-06
1.32624e-06
1.33237e-06
1.33854e-06
1.34478e-06
1.35107e-06
1.35742e-06
1.36383e-06
1.3703e-06
1.37683e-06
1.38342e-06
1.39007e-06
1.39678e-06
1.40356e-06
1.4104e-06
1.4173e-06
1.42427e-06
1.43131e-06
1.43842e-06
1.44559e-06
1.45284e-06
1.46015e-06
1.46754e-06
1.47499e-06
1.48252e-06
1.49013e-06
1.49781e-06
1.50557e-06
1.51341e-06
1.52133e-06
1.52932e-06
1.5374e-06
1.54557e-06
1.55381e-06
1.56215e-06
1.57057e-06
1.57909e-06
1.58769e-06
1.59639e-06
1.60518e-06
1.61407e-06
1.62305e-06
1.63214e-06
1.64133e-06
1.65062e-06
1.66002e-06
1.66952e-06
1.67914e-06
1.68886e-06
1.6987e-06
1.70865e-06
1.71872e-06
1.72891e-06
1.73922e-06
1.74965e-06
1.7602e-06
1.77089e-06
1.7817e-06
1.79264e-06
1.80371e-06
1.81492e-06
1.82627e-06
1.83775e-06
1.84938e-06
1.86115e-06
1.87307e-06
1.88513e-06
1.89735e-06
1.90972e-06
1.92225e-06
1.93494e-06
1.9478e-06
1.96082e-06
1.974e-06
1.98737e-06
2.00091e-06
2.01463e-06
2.02853e-06
2.04262e-06
2.05681e-06
2.07115e-06
2.08584e-06
2.10074e-06
2.11585e-06
2.13118e-06
2.14671e-06
2.16247e-06
2.17846e-06
2.19468e-06
2.21114e-06
2.22784e-06
2.24479e-06
2.26201e-06
2.27948e-06
2.29723e-06
2.31525e-06
2.33355e-06
2.35215e-06
2.37104e-06
2.39025e-06
2.40976e-06
2.4296e-06
2.44977e-06
2.47027e-06
2.49113e-06
2.51234e-06
2.53393e-06
2.55589e-06
2.57824e-06
2.60099e-06
2.62414e-06
2.64772e-06
2.67173e-06
2.69618e-06
2.72109e-06
2.74647e-06
2.77233e-06
2.79869e-06
2.82555e-06
2.85294e-06
2.88087e-06
2.90935e-06
2.93841e-06
2.96805e-06
2.9983e-06
3.02918e-06
3.0607e-06
3.09289e-06
3.12577e-06
3.15935e-06
3.19364e-06
3.22849e-06
3.26397e-06
3.3006e-06
3.33807e-06
3.37641e-06
3.41562e-06
3.45575e-06
3.49682e-06
3.53886e-06
3.58192e-06
3.62602e-06
3.67121e-06
3.71752e-06
3.765e-06
3.81368e-06
3.8636e-06
3.91454e-06
3.96651e-06
4.02029e-06
4.07549e-06
4.13216e-06
4.19037e-06
4.25018e-06
4.31165e-06
4.37485e-06
4.43986e-06
4.50675e-06
4.57562e-06
4.64655e-06
4.71965e-06
4.79501e-06
4.87276e-06
4.95302e-06
5.03591e-06
5.12159e-06
5.21019e-06
5.3019e-06
5.39687e-06
5.49529e-06
5.59734e-06
5.70321e-06
5.81265e-06
5.92584e-06
6.04468e-06
6.16843e-06
6.29731e-06
6.43164e-06
6.57173e-06
6.71797e-06
6.87073e-06
7.03047e-06
7.19763e-06
7.37274e-06
7.5563e-06
7.74827e-06
7.9485e-06
8.16086e-06
8.38456e-06
8.6205e-06
8.86968e-06
9.1332e-06
9.41233e-06
9.70847e-06
1.00233e-05
1.03586e-05
1.07165e-05
1.10995e-05
1.15104e-05
1.19519e-05
1.24243e-05
1.29402e-05
1.35006e-05
1.41111e-05
1.47785e-05
1.55107e-05
1.63172e-05
1.72091e-05
1.81998e-05
1.93053e-05
2.05454e-05
2.19445e-05
2.35332e-05
2.53503e-05
2.74454e-05
2.98835e-05
3.27516e-05
3.61692e-05
4.03058e-05
4.54055e-05
5.18201e-05
6.00581e-05
7.08772e-05
8.55115e-05
0.000106239
0.000137733
0.000190228
0.000287287
0.000488333
0.000985228
0.00257596
0.00903068
0.0559881
0.0805181
0.0921664
0.0977681
0.100492
0.101829
0.102488
0.102815
0.102978
0.103059
0.103099
0.103119
0.103129
0.103134
0.103137
0.103138
0.103138
0.103139
0.103139
0.103139
0.103139
0.103139
0.103139
0.103139
0.103139
0.103139
0.103139
0.103139
0.103139
0.103139
0.103139
0.103139
0.103139
0.103139
0.103139
0.103139
0.103139
0.103139
0.103139
0.103139
0.103139
0.103139
0.103139
0.103139
0.103139
0.103139
0.103139
0.103139
0.103139
0.103139
0.103139
0.103139
0.103139
0.103139
0.103139
0.103139
0.103139
0.103139
0.103139
0.103139
0.103139
0.103139
0.103139
0.103139
0.103139
0.103139
0.103139
0.103139
0.103139
0.103139
0.103139
0.103139
0.103139
0.103139
0.103139
0.103139
0.103139
0.103139
0.103139
0.103139
0.103139
0.103139
0.103139
0.103139
0.103139
0.103139
0.103139
0.103139
0.103139
0.103139
0.103139
0.103139
0.103139
0.103139
0.103139
0.103139
0.103139
0.103139
0.103139
0.103139
0.103139
0.103139
0.103139
0.103139
0.103139
0.103139
0.103139
0.103139
0.103139
0.103139
0.103139
0.103139
0.103139
0.103139
0.103139
0.103139
0.103139
0.103139
0.103139
0.103139
0.103139
0.103139
0.103139
0.103139
0.103139
0.103139
0.103139
0.103139
0.103139
0.103139
0.103139
0.103139
0.103139
0.103139
0.103139
0.103139
0.103139
0.103139
0.103139
0.103139
0.103139
0.103139
0.103139
0.103139
0.103139
0.103139
0.103139
0.103139
0.103139
0.103139
0.103139
0.103139
0.103139
0.103139
0.103139
0.103139
0.103139
0.103139
0.103139
0.103139
0.103139
0.103139
0.103139
0.103139
0.103139
0.103139
0.103139
0.103139
0.103139
0.103139
0.103139
0.103139
0.103139
0.103139
0.103139
0.103139
0.103139
0.103139
0.103139
0.103139
0.103139
0.103139
0.103139
0.103139
0.103139
0.103139
0.103139
0.103139
0.103139
0.103139
0.103139
0.103139
0.103139
0.103139
0.103139
0.103139
0.103139
0.103139
0.103139
0.103139
0.103139
0.103139
0.103139
0.103139
0.103139
0.103139
0.103139
0.103139
0.103139
0.103139
0.103139
0.103139
0.103139
0.103139
0.103139
0.103139
0.103139
0.103139
0.103139
0.103139
0.103139
0.103139
0.103139
0.103139
0.103139
0.103139
0.103139
0.103139
0.103139
0.103139
0.103139
0.103139
0.103139
0.103139
0.103139
0.103139
0.103139
0.103139
0.103139
0.103139
0.103139
0.103139
0.103139
0.103139
0.103139
0.103139
0.103139
0.103139
0.103139
0.103139
0.103139
0.103139
0.103139
0.103139
0.103139
0.103139
0.103139
0.103139
0.103139
0.103139
0.103139
0.103139
0.103139
0.103139
0.103139
0.103139
0.103139
0.103139
0.103139
0.103139
0.103139
0.103139
0.103139
0.103139
0.103139
0.103139
0.103139
0.103139
0.103139
0.103139
0.103139
0.103139
0.103139
0.103139
0.103139
0.103139
0.103139
0.103139
0.103139
0.103139
0.103139
0.103139
0.103139
0.103139
0.103139
0.103139
0.103139
0.103139
0.103139
0.103139
0.103139
0.103139
0.103139
0.103139
0.103139
0.103139
0.103139
0.103139
0.103139
0.103139
0.103139
0.103139
0.103139
0.103139
0.103139
0.103139
0.103139
0.103139
0.103139
0.103139
0.103139
0.103139
0.103139
0.103139
0.103139
0.103139
0.103139
0.103139
0.103139
0.103139
0.103139
0.103139
0.103139
0.103139
0.103139
0.103139
0.103139
0.103139
0.103139
0.103139
0.103139
0.103139
0.103139
0.103139
0.103139
0.103139
0.103139
0.103139
0.103139
0.103139
0.103139
0.103139
0.103139
0.103139
0.103139
0.103139
0.103139
0.103139
0.103139
0.103139
0.103139
0.103139
0.103139
0.103139
0.103139
0.103139
0.103139
0.103139
0.103139
0.103139
0.103139
0.103139
0.103139
0.103139
0.103139
0.103139
0.103139
0.103139
0.103139
0.103139
0.103139
0.103139
0.103139
0.103139
0.103139
0.103139
0.103139
0.103139
0.103139
0.103139
0.103139
0.103139
0.103139
0.103139
0.103139
0.103139
0.103139
0.103139
0.103139
0.103139
0.103139
0.103139
0.103139
0.103139
0.103139
0.103139
0.103139
0.103139
0.103139
0.103139
0.103139
0.103139
0.103139
0.103139
0.103139
0.103139
0.103139
0.103139
0.103139
0.103139
0.103139
0.103139
0.103139
0.103139
0.103139
0.103139
0.103139
0.103139
0.103139
0.103139
0.103139
0.103139
0.103139
0.103139
0.103139
0.103139
0.103139
0.103139
0.103139
0.103139
0.103139
0.103139
0.103139
0.103139
0.103139
0.103139
0.103139
0.103139
0.103139
0.103139
0.103139
0.103139
0.103139
0.103139
0.103139
0.103139
0.103139
0.103139
0.103139
0.103139
0.103139
0.103139
0.103139
0.103139
0.103139
0.103139
0.103139
0.103139
0.103139
0.103139
0.103139
0.103139
0.103139
0.103139
0.103139
0.103139
0.103139
0.103139
0.103139
0.103139
0.103139
0.103139
0.103139
0.103139
0.103139
0.103139
0.103139
0.103139
0.103139
0.103139
0.103139
0.103139
0.103139
0.103139
0.103139
0.103139
0.103139
0.103139
0.103139
0.103139
0.103139
0.103139
0.103139
0.103139
0.103139
0.103139
0.103139
0.103139
0.103139
0.103139
0.103139
0.103139
0.103139
0.103139
0.103139
0.103139
0.103139
0.103139
0.103139
0.103139
0.103139
0.103139
0.103139
0.103139
0.103139
0.103139
0.103139
0.103139
0.103139
0.103139
0.103139
0.103139
0.103139
0.103139
0.103139
0.103139
0.103139
0.103139
0.103139
0.103139
0.103139
0.103139
0.103139
0.103139
0.103139
0.103139
0.103139
0.103139
0.103139
0.103139
0.103139
0.103139
0.103139
0.103139
0.103139
0.103139
0.103139
0.103139
)
;

boundaryField
{
    fixedWall
    {
        type            zeroGradient;
    }
    outlet
    {
        type            inletOutlet;
        inletValue      uniform 0;
        value           uniform 0.103139;
    }
    defaultFaces
    {
        type            empty;
    }
}


// ************************************************************************* //
