/*--------------------------------*- C++ -*----------------------------------*\
| =========                 |                                                 |
| \\      /  F ield         | OpenFOAM: The Open Source CFD Toolbox           |
|  \\    /   O peration     | Version:  2406                                  |
|   \\  /    A nd           | Website:  www.openfoam.com                      |
|    \\/     M anipulation  |                                                 |
\*---------------------------------------------------------------------------*/
FoamFile
{
    version     2.0;
    format      ascii;
    arch        "LSB;label=32;scalar=64";
    class       surfaceScalarField;
    location    "2.8";
    object      phi;
}
// * * * * * * * * * * * * * * * * * * * * * * * * * * * * * * * * * * * * * //

dimensions      [1 0 -1 0 0 0 0];

oriented        oriented;

internalField   nonuniform List<scalar> 
999
(
-1.59133e-07
-4.4112e-07
-7.7186e-07
-1.121e-06
-1.47447e-06
-1.8253e-06
-2.16989e-06
-2.50641e-06
-2.83393e-06
-3.15206e-06
-3.46069e-06
-3.75988e-06
-4.04979e-06
-4.33061e-06
-4.60258e-06
-4.86593e-06
-5.1209e-06
-5.36772e-06
-5.60661e-06
-5.83779e-06
-6.06147e-06
-6.27784e-06
-6.4871e-06
-6.68941e-06
-6.88496e-06
-7.0739e-06
-7.25641e-06
-7.43262e-06
-7.6027e-06
-7.76678e-06
-7.92501e-06
-8.07753e-06
-8.22446e-06
-8.36595e-06
-8.50213e-06
-8.63312e-06
-8.75904e-06
-8.88004e-06
-8.99623e-06
-9.10773e-06
-9.21468e-06
-9.31719e-06
-9.41539e-06
-9.50939e-06
-9.59933e-06
-9.68531e-06
-9.76747e-06
-9.84592e-06
-9.92078e-06
-9.99217e-06
-1.00602e-05
-1.0125e-05
-1.01867e-05
-1.02454e-05
-1.03012e-05
-1.03542e-05
-1.04045e-05
-1.04523e-05
-1.04976e-05
-1.05406e-05
-1.05814e-05
-1.06201e-05
-1.06566e-05
-1.06913e-05
-1.07236e-05
-1.07545e-05
-1.0784e-05
-1.08119e-05
-1.08383e-05
-1.08633e-05
-1.08869e-05
-1.09093e-05
-1.09305e-05
-1.09506e-05
-1.09696e-05
-1.09878e-05
-1.1005e-05
-1.10213e-05
-1.10369e-05
-1.10517e-05
-1.10659e-05
-1.10794e-05
-1.10924e-05
-1.11048e-05
-1.11167e-05
-1.11281e-05
-1.11391e-05
-1.11497e-05
-1.116e-05
-1.11699e-05
-1.11796e-05
-1.1189e-05
-1.11981e-05
-1.1207e-05
-1.12157e-05
-1.12242e-05
-1.12325e-05
-1.12407e-05
-1.12487e-05
-1.12566e-05
-1.12645e-05
-1.12722e-05
-1.12798e-05
-1.12874e-05
-1.12948e-05
-1.13023e-05
-1.13096e-05
-1.13169e-05
-1.13242e-05
-1.13315e-05
-1.13387e-05
-1.13459e-05
-1.1353e-05
-1.13602e-05
-1.13673e-05
-1.13744e-05
-1.13815e-05
-1.13886e-05
-1.13957e-05
-1.14028e-05
-1.14098e-05
-1.14169e-05
-1.1424e-05
-1.14311e-05
-1.14382e-05
-1.14453e-05
-1.14523e-05
-1.14594e-05
-1.14665e-05
-1.14736e-05
-1.14807e-05
-1.14878e-05
-1.1495e-05
-1.15021e-05
-1.15092e-05
-1.15164e-05
-1.15235e-05
-1.15307e-05
-1.15378e-05
-1.1545e-05
-1.15521e-05
-1.15593e-05
-1.15665e-05
-1.15737e-05
-1.15809e-05
-1.15881e-05
-1.15953e-05
-1.16025e-05
-1.16097e-05
-1.1617e-05
-1.16242e-05
-1.16315e-05
-1.16387e-05
-1.16459e-05
-1.16532e-05
-1.16605e-05
-1.16677e-05
-1.1675e-05
-1.16823e-05
-1.16896e-05
-1.16968e-05
-1.17041e-05
-1.17114e-05
-1.17187e-05
-1.1726e-05
-1.17333e-05
-1.17406e-05
-1.17479e-05
-1.17553e-05
-1.17626e-05
-1.17699e-05
-1.17772e-05
-1.17846e-05
-1.17919e-05
-1.17992e-05
-1.18066e-05
-1.18139e-05
-1.18213e-05
-1.18286e-05
-1.1836e-05
-1.18433e-05
-1.18507e-05
-1.18581e-05
-1.18654e-05
-1.18728e-05
-1.18802e-05
-1.18876e-05
-1.18949e-05
-1.19023e-05
-1.19097e-05
-1.19171e-05
-1.19245e-05
-1.19319e-05
-1.19393e-05
-1.19467e-05
-1.19541e-05
-1.19615e-05
-1.1969e-05
-1.19764e-05
-1.19838e-05
-1.19912e-05
-1.19987e-05
-1.20061e-05
-1.20135e-05
-1.20209e-05
-1.20284e-05
-1.20358e-05
-1.20433e-05
-1.20507e-05
-1.20582e-05
-1.20656e-05
-1.20731e-05
-1.20805e-05
-1.2088e-05
-1.20954e-05
-1.21029e-05
-1.21103e-05
-1.21178e-05
-1.21253e-05
-1.21327e-05
-1.21402e-05
-1.21477e-05
-1.21551e-05
-1.21626e-05
-1.21701e-05
-1.21776e-05
-1.2185e-05
-1.21925e-05
-1.22e-05
-1.22075e-05
-1.2215e-05
-1.22225e-05
-1.223e-05
-1.22375e-05
-1.2245e-05
-1.22525e-05
-1.226e-05
-1.22675e-05
-1.2275e-05
-1.22826e-05
-1.22901e-05
-1.22976e-05
-1.23052e-05
-1.23127e-05
-1.23202e-05
-1.23278e-05
-1.23353e-05
-1.23429e-05
-1.23505e-05
-1.2358e-05
-1.23656e-05
-1.23732e-05
-1.23808e-05
-1.23884e-05
-1.2396e-05
-1.24035e-05
-1.24111e-05
-1.24187e-05
-1.24263e-05
-1.2434e-05
-1.24416e-05
-1.24492e-05
-1.24568e-05
-1.24644e-05
-1.2472e-05
-1.24796e-05
-1.24872e-05
-1.24948e-05
-1.25025e-05
-1.25101e-05
-1.25177e-05
-1.25253e-05
-1.25329e-05
-1.25405e-05
-1.25482e-05
-1.25558e-05
-1.25634e-05
-1.2571e-05
-1.25787e-05
-1.25863e-05
-1.25939e-05
-1.26016e-05
-1.26092e-05
-1.26168e-05
-1.26245e-05
-1.26321e-05
-1.26398e-05
-1.26474e-05
-1.26551e-05
-1.26628e-05
-1.26705e-05
-1.26782e-05
-1.26858e-05
-1.26935e-05
-1.27012e-05
-1.2709e-05
-1.27167e-05
-1.27244e-05
-1.27321e-05
-1.27399e-05
-1.27476e-05
-1.27554e-05
-1.27631e-05
-1.27709e-05
-1.27787e-05
-1.27864e-05
-1.27942e-05
-1.2802e-05
-1.28098e-05
-1.28176e-05
-1.28254e-05
-1.28332e-05
-1.2841e-05
-1.28488e-05
-1.28566e-05
-1.28645e-05
-1.28723e-05
-1.28801e-05
-1.28879e-05
-1.28957e-05
-1.29035e-05
-1.29114e-05
-1.29192e-05
-1.2927e-05
-1.29349e-05
-1.29427e-05
-1.29505e-05
-1.29584e-05
-1.29662e-05
-1.29741e-05
-1.29819e-05
-1.29898e-05
-1.29977e-05
-1.30056e-05
-1.30134e-05
-1.30214e-05
-1.30293e-05
-1.30372e-05
-1.30451e-05
-1.3053e-05
-1.3061e-05
-1.30689e-05
-1.30769e-05
-1.30848e-05
-1.30928e-05
-1.31008e-05
-1.31087e-05
-1.31167e-05
-1.31246e-05
-1.31326e-05
-1.31405e-05
-1.31485e-05
-1.31564e-05
-1.31643e-05
-1.31722e-05
-1.31801e-05
-1.3188e-05
-1.31959e-05
-1.32037e-05
-1.32116e-05
-1.32194e-05
-1.32272e-05
-1.3235e-05
-1.32429e-05
-1.32507e-05
-1.32585e-05
-1.32663e-05
-1.32741e-05
-1.32819e-05
-1.32898e-05
-1.32976e-05
-1.33055e-05
-1.33134e-05
-1.33213e-05
-1.33293e-05
-1.33373e-05
-1.33454e-05
-1.33534e-05
-1.33616e-05
-1.33697e-05
-1.33779e-05
-1.33861e-05
-1.33943e-05
-1.34025e-05
-1.34107e-05
-1.34189e-05
-1.3427e-05
-1.34351e-05
-1.34431e-05
-1.3451e-05
-1.34589e-05
-1.34667e-05
-1.34743e-05
-1.34819e-05
-1.34894e-05
-1.34968e-05
-1.35042e-05
-1.35115e-05
-1.35188e-05
-1.35261e-05
-1.35333e-05
-1.35406e-05
-1.3548e-05
-1.35553e-05
-1.35628e-05
-1.35703e-05
-1.35779e-05
-1.35856e-05
-1.35933e-05
-1.36012e-05
-1.36091e-05
-1.36171e-05
-1.36251e-05
-1.36331e-05
-1.36411e-05
-1.3649e-05
-1.36567e-05
-1.36641e-05
-1.36711e-05
-1.36775e-05
-1.36831e-05
-1.36878e-05
-1.36914e-05
-1.36937e-05
-1.36946e-05
-1.36939e-05
-1.36915e-05
-1.3687e-05
-1.36801e-05
-1.367e-05
-1.36556e-05
-1.36343e-05
-1.36014e-05
-1.35492e-05
-1.34671e-05
-1.33409e-05
-1.31311e-05
-1.26449e-05
-1.09904e-05
-4.492e-06
2.21411e-05
0.000164746
0.000350639
0.000542318
0.000707173
0.000826256
0.000902061
0.000946667
0.000971758
0.000985523
0.00099297
0.000996964
0.000999092
0.00100022
0.0010008
0.00100111
0.00100125
0.00100132
0.00100134
0.00100134
0.00100132
0.0010013
0.00100128
0.00100125
0.00100123
0.0010012
0.00100117
0.00100114
0.00100112
0.00100109
0.00100106
0.00100103
0.00100101
0.00100098
0.00100095
0.00100093
0.0010009
0.00100087
0.00100084
0.00100082
0.00100079
0.00100076
0.00100074
0.00100071
0.00100068
0.00100066
0.00100063
0.00100061
0.00100058
0.00100055
0.00100053
0.0010005
0.00100048
0.00100045
0.00100043
0.0010004
0.00100037
0.00100035
0.00100032
0.0010003
0.00100027
0.00100025
0.00100022
0.0010002
0.00100017
0.00100015
0.00100012
0.0010001
0.00100007
0.00100005
0.00100002
0.001
0.000999976
0.000999951
0.000999927
0.000999903
0.000999879
0.000999855
0.000999831
0.000999807
0.000999783
0.00099976
0.000999736
0.000999712
0.000999689
0.000999665
0.000999642
0.000999619
0.000999595
0.000999572
0.000999549
0.000999526
0.000999503
0.00099948
0.000999457
0.000999435
0.000999412
0.000999389
0.000999367
0.000999344
0.000999322
0.0009993
0.000999277
0.000999255
0.000999233
0.000999211
0.000999189
0.000999167
0.000999145
0.000999123
0.000999101
0.00099908
0.000999058
0.000999036
0.000999015
0.000998993
0.000998972
0.000998951
0.00099893
0.000998908
0.000998887
0.000998866
0.000998845
0.000998824
0.000998804
0.000998783
0.000998762
0.000998741
0.000998721
0.0009987
0.00099868
0.000998659
0.000998639
0.000998619
0.000998599
0.000998578
0.000998558
0.000998538
0.000998518
0.000998498
0.000998479
0.000998459
0.000998439
0.000998419
0.0009984
0.00099838
0.000998361
0.000998341
0.000998322
0.000998303
0.000998284
0.000998264
0.000998245
0.000998226
0.000998207
0.000998188
0.00099817
0.000998151
0.000998132
0.000998113
0.000998095
0.000998076
0.000998058
0.000998039
0.000998021
0.000998003
0.000997984
0.000997966
0.000997948
0.00099793
0.000997912
0.000997894
0.000997876
0.000997858
0.00099784
0.000997823
0.000997805
0.000997787
0.00099777
0.000997752
0.000997735
0.000997718
0.0009977
0.000997683
0.000997666
0.000997649
0.000997631
0.000997614
0.000997597
0.00099758
0.000997564
0.000997547
0.00099753
0.000997513
0.000997497
0.00099748
0.000997464
0.000997447
0.000997431
0.000997414
0.000997398
0.000997382
0.000997366
0.00099735
0.000997334
0.000997317
0.000997301
0.000997286
0.00099727
0.000997254
0.000997238
0.000997223
0.000997207
0.000997191
0.000997176
0.00099716
0.000997145
0.000997129
0.000997114
0.000997099
0.000997084
0.000997068
0.000997053
0.000997038
0.000997023
0.000997008
0.000996994
0.000996979
0.000996964
0.000996949
0.000996935
0.00099692
0.000996905
0.000996891
0.000996877
0.000996862
0.000996848
0.000996833
0.000996819
0.000996805
0.000996791
0.000996777
0.000996763
0.000996749
0.000996735
0.000996721
0.000996707
0.000996693
0.00099668
0.000996666
0.000996652
0.000996639
0.000996625
0.000996612
0.000996598
0.000996585
0.000996572
0.000996558
0.000996545
0.000996532
0.000996519
0.000996506
0.000996493
0.00099648
0.000996467
0.000996454
0.000996441
0.000996429
0.000996416
0.000996403
0.000996391
0.000996378
0.000996366
0.000996353
0.000996341
0.000996328
0.000996316
0.000996304
0.000996292
0.000996279
0.000996267
0.000996255
0.000996243
0.000996231
0.000996219
0.000996208
0.000996196
0.000996184
0.000996172
0.000996161
0.000996149
0.000996137
0.000996126
0.000996114
0.000996103
0.000996092
0.00099608
0.000996069
0.000996058
0.000996047
0.000996036
0.000996024
0.000996013
0.000996002
0.000995991
0.00099598
0.00099597
0.000995959
0.000995948
0.000995937
0.000995927
0.000995916
0.000995906
0.000995895
0.000995885
0.000995874
0.000995864
0.000995853
0.000995843
0.000995833
0.000995823
0.000995813
0.000995803
0.000995792
0.000995783
0.000995773
0.000995763
0.000995753
0.000995743
0.000995733
0.000995723
0.000995714
0.000995704
0.000995695
0.000995685
0.000995675
0.000995666
0.000995657
0.000995647
0.000995638
0.000995629
0.000995619
0.00099561
0.000995601
0.000995592
0.000995583
0.000995574
0.000995565
0.000995556
0.000995547
0.000995538
0.00099553
0.000995521
0.000995512
0.000995504
0.000995495
0.000995487
0.000995478
0.00099547
0.000995461
0.000995453
0.000995444
0.000995436
0.000995428
0.00099542
0.000995412
0.000995403
0.000995395
0.000995387
0.00099538
0.000995372
0.000995364
0.000995356
0.000995348
0.00099534
0.000995333
0.000995325
0.000995317
0.00099531
0.000995302
0.000995295
0.000995287
0.00099528
0.000995273
0.000995265
0.000995258
0.000995251
0.000995244
0.000995236
0.000995229
0.000995222
0.000995215
0.000995208
0.000995201
0.000995195
0.000995188
0.000995181
0.000995174
0.000995167
0.000995161
0.000995154
0.000995147
0.000995141
0.000995134
0.000995128
0.000995122
0.000995115
0.000995109
0.000995103
0.000995096
0.00099509
0.000995084
0.000995078
0.000995072
0.000995066
0.00099506
0.000995054
0.000995048
0.000995042
0.000995036
0.000995031
0.000995025
0.000995019
0.000995014
0.000995008
0.000995002
0.000994997
0.000994991
0.000994986
0.000994981
0.000994975
0.00099497
0.000994965
0.000994959
0.000994954
0.000994949
0.000994944
0.000994939
0.000994934
0.000994929
0.000994924
0.000994919
0.000994914
0.000994909
0.000994905
0.0009949
0.000994895
0.00099489
0.000994886
0.000994881
0.000994877
0.000994872
0.000994868
0.000994863
0.000994859
0.000994855
0.00099485
0.000994846
0.000994842
0.000994838
0.000994834
0.00099483
0.000994826
0.000994822
0.000994818
0.000994814
0.00099481
0.000994806
0.000994802
0.000994799
0.000994795
0.000994791
0.000994788
0.000994784
0.000994781
0.000994777
0.000994774
0.00099477
0.000994767
0.000994763
0.00099476
0.000994757
0.000994754
0.00099475
0.000994747
0.000994744
0.000994741
0.000994738
0.000994735
0.000994732
0.000994729
0.000994726
0.000994723
0.000994721
0.000994718
0.000994715
0.000994713
0.00099471
0.000994707
0.000994705
0.000994702
0.0009947
0.000994698
0.000994695
0.000994693
0.000994691
0.000994688
0.000994686
0.000994684
0.000994682
0.00099468
0.000994678
0.000994676
0.000994674
0.000994672
0.00099467
0.000994668
0.000994666
0.000994664
0.000994663
0.000994661
0.000994659
0.000994658
0.000994656
0.000994655
0.000994653
0.000994652
0.00099465
0.000994649
0.000994647
0.000994646
0.000994645
0.000994644
0.000994643
0.000994641
0.00099464
0.000994639
0.000994638
0.000994637
0.000994636
0.000994635
0.000994634
0.000994634
0.000994633
0.000994632
0.000994631
0.000994631
0.00099463
0.00099463
0.000994629
0.000994629
0.000994628
0.000994628
0.000994627
0.000994627
0.000994627
0.000994626
0.000994626
0.000994626
)
;

boundaryField
{
    fixedWall
    {
        type            calculated;
        value           uniform 0;
    }
    outlet
    {
        type            calculated;
        value           uniform 0.000994626;
    }
    defaultFaces
    {
        type            empty;
    }
}


// ************************************************************************* //
