/*--------------------------------*- C++ -*----------------------------------*\
| =========                 |                                                 |
| \\      /  F ield         | OpenFOAM: The Open Source CFD Toolbox           |
|  \\    /   O peration     | Version:  2406                                  |
|   \\  /    A nd           | Website:  www.openfoam.com                      |
|    \\/     M anipulation  |                                                 |
\*---------------------------------------------------------------------------*/
FoamFile
{
    version     2.0;
    format      ascii;
    arch        "LSB;label=32;scalar=64";
    class       volScalarField;
    location    "10.4";
    object      O2;
}
// * * * * * * * * * * * * * * * * * * * * * * * * * * * * * * * * * * * * * //

dimensions      [0 0 0 0 0 0 0];

internalField   nonuniform List<scalar> 
1000
(
1.13882e-06
1.13693e-06
1.13351e-06
1.12879e-06
1.12297e-06
1.11618e-06
1.10855e-06
1.10018e-06
1.09113e-06
1.08149e-06
1.07131e-06
1.06065e-06
1.04955e-06
1.03805e-06
1.0262e-06
1.01402e-06
1.00154e-06
9.88808e-07
9.75835e-07
9.62652e-07
9.49281e-07
9.35744e-07
9.22062e-07
9.08256e-07
8.94344e-07
8.80344e-07
8.66274e-07
8.52151e-07
8.37991e-07
8.2381e-07
8.09623e-07
7.95445e-07
7.81291e-07
7.67176e-07
7.53112e-07
7.39114e-07
7.25195e-07
7.11366e-07
6.97642e-07
6.84033e-07
6.70551e-07
6.57208e-07
6.44013e-07
6.30977e-07
6.18109e-07
6.05419e-07
5.92914e-07
5.80603e-07
5.68493e-07
5.5659e-07
5.44901e-07
5.33431e-07
5.22185e-07
5.11168e-07
5.00382e-07
4.89831e-07
4.79518e-07
4.69444e-07
4.59612e-07
4.50021e-07
4.40672e-07
4.31566e-07
4.22701e-07
4.14077e-07
4.05692e-07
3.97546e-07
3.89634e-07
3.81956e-07
3.74509e-07
3.67289e-07
3.60294e-07
3.53519e-07
3.46962e-07
3.40618e-07
3.34484e-07
3.28555e-07
3.22828e-07
3.17297e-07
3.11959e-07
3.06809e-07
3.01842e-07
2.97055e-07
2.92442e-07
2.87999e-07
2.83721e-07
2.79604e-07
2.75643e-07
2.71834e-07
2.68173e-07
2.64654e-07
2.61274e-07
2.58028e-07
2.54913e-07
2.51923e-07
2.49055e-07
2.46305e-07
2.43669e-07
2.41144e-07
2.38724e-07
2.36408e-07
2.34191e-07
2.32069e-07
2.3004e-07
2.281e-07
2.26245e-07
2.24473e-07
2.22781e-07
2.21166e-07
2.19624e-07
2.18154e-07
2.16751e-07
2.15415e-07
2.14141e-07
2.12929e-07
2.11775e-07
2.10677e-07
2.09632e-07
2.0864e-07
2.07697e-07
2.06802e-07
2.05952e-07
2.05147e-07
2.04384e-07
2.0366e-07
2.02976e-07
2.02329e-07
2.01717e-07
2.01139e-07
2.00594e-07
2.00081e-07
1.99597e-07
1.99141e-07
1.98714e-07
1.98312e-07
1.97935e-07
1.97583e-07
1.97253e-07
1.96946e-07
1.96659e-07
1.96393e-07
1.96145e-07
1.95916e-07
1.95705e-07
1.9551e-07
1.95331e-07
1.95168e-07
1.95019e-07
1.94884e-07
1.94762e-07
1.94653e-07
1.94556e-07
1.94471e-07
1.94396e-07
1.94332e-07
1.94279e-07
1.94234e-07
1.94199e-07
1.94172e-07
1.94153e-07
1.94143e-07
1.9414e-07
1.94144e-07
1.94155e-07
1.94172e-07
1.94195e-07
1.94225e-07
1.9426e-07
1.943e-07
1.94345e-07
1.94395e-07
1.9445e-07
1.94509e-07
1.94573e-07
1.9464e-07
1.94711e-07
1.94786e-07
1.94863e-07
1.94944e-07
1.95029e-07
1.95116e-07
1.95206e-07
1.95299e-07
1.95394e-07
1.95492e-07
1.95591e-07
1.95693e-07
1.95797e-07
1.95903e-07
1.96011e-07
1.96121e-07
1.96232e-07
1.96345e-07
1.9646e-07
1.96576e-07
1.96693e-07
1.96812e-07
1.96931e-07
1.97053e-07
1.97175e-07
1.97298e-07
1.97422e-07
1.97548e-07
1.97674e-07
1.97801e-07
1.97929e-07
1.98058e-07
1.98187e-07
1.98317e-07
1.98448e-07
1.9858e-07
1.98712e-07
1.98845e-07
1.98979e-07
1.99113e-07
1.99247e-07
1.99382e-07
1.99518e-07
1.99654e-07
1.99791e-07
1.99927e-07
2.00065e-07
2.00203e-07
2.00341e-07
2.00479e-07
2.00618e-07
2.00758e-07
2.00897e-07
2.01037e-07
2.01177e-07
2.01318e-07
2.01459e-07
2.016e-07
2.01741e-07
2.01883e-07
2.02025e-07
2.02167e-07
2.0231e-07
2.02453e-07
2.02596e-07
2.02739e-07
2.02882e-07
2.03026e-07
2.0317e-07
2.03313e-07
2.03457e-07
2.03602e-07
2.03746e-07
2.03891e-07
2.04037e-07
2.04182e-07
2.04328e-07
2.04473e-07
2.04619e-07
2.04766e-07
2.04912e-07
2.05058e-07
2.05205e-07
2.05352e-07
2.05499e-07
2.05646e-07
2.05793e-07
2.05941e-07
2.06089e-07
2.06237e-07
2.06385e-07
2.06533e-07
2.06681e-07
2.0683e-07
2.06979e-07
2.07128e-07
2.07277e-07
2.07426e-07
2.07575e-07
2.07725e-07
2.07875e-07
2.08025e-07
2.08175e-07
2.08325e-07
2.08475e-07
2.08626e-07
2.08777e-07
2.08928e-07
2.09079e-07
2.0923e-07
2.09382e-07
2.09533e-07
2.09685e-07
2.09837e-07
2.09989e-07
2.10141e-07
2.10294e-07
2.10447e-07
2.10599e-07
2.10752e-07
2.10906e-07
2.11059e-07
2.11213e-07
2.11366e-07
2.1152e-07
2.11674e-07
2.11828e-07
2.11982e-07
2.12137e-07
2.12292e-07
2.12447e-07
2.12602e-07
2.12757e-07
2.12913e-07
2.13069e-07
2.13225e-07
2.13381e-07
2.13537e-07
2.13694e-07
2.1385e-07
2.14007e-07
2.14165e-07
2.14322e-07
2.1448e-07
2.14637e-07
2.14795e-07
2.14953e-07
2.15112e-07
2.1527e-07
2.15429e-07
2.15588e-07
2.15747e-07
2.15907e-07
2.16066e-07
2.16226e-07
2.16386e-07
2.16547e-07
2.16707e-07
2.16868e-07
2.17029e-07
2.1719e-07
2.17351e-07
2.17513e-07
2.17675e-07
2.17837e-07
2.17999e-07
2.18162e-07
2.18324e-07
2.18487e-07
2.18651e-07
2.18814e-07
2.18978e-07
2.19142e-07
2.19306e-07
2.1947e-07
2.19635e-07
2.198e-07
2.19965e-07
2.20131e-07
2.20296e-07
2.20462e-07
2.20628e-07
2.20795e-07
2.20961e-07
2.21128e-07
2.21295e-07
2.21463e-07
2.21631e-07
2.21799e-07
2.21967e-07
2.22135e-07
2.22304e-07
2.22473e-07
2.22642e-07
2.22812e-07
2.22982e-07
2.23152e-07
2.23322e-07
2.23493e-07
2.23664e-07
2.23835e-07
2.24006e-07
2.24178e-07
2.2435e-07
2.24522e-07
2.24695e-07
2.24867e-07
2.25041e-07
2.25214e-07
2.25388e-07
2.25561e-07
2.25736e-07
2.2591e-07
2.26085e-07
2.2626e-07
2.26435e-07
2.26611e-07
2.26787e-07
2.26963e-07
2.27139e-07
2.27316e-07
2.27493e-07
2.27671e-07
2.27848e-07
2.28026e-07
2.28204e-07
2.28383e-07
2.28562e-07
2.28741e-07
2.2892e-07
2.291e-07
2.29279e-07
2.2946e-07
2.2964e-07
2.29821e-07
2.30002e-07
2.30183e-07
2.30365e-07
2.30547e-07
2.30729e-07
2.30912e-07
2.31095e-07
2.31278e-07
2.31461e-07
2.31645e-07
2.31829e-07
2.32013e-07
2.32198e-07
2.32383e-07
2.32568e-07
2.32753e-07
2.32939e-07
2.33125e-07
2.33311e-07
2.33498e-07
2.33685e-07
2.33872e-07
2.3406e-07
2.34248e-07
2.34436e-07
2.34624e-07
2.34813e-07
2.35002e-07
2.35191e-07
2.35381e-07
2.35571e-07
2.35761e-07
2.35952e-07
2.36142e-07
2.36334e-07
2.36525e-07
2.36717e-07
2.36909e-07
2.37101e-07
2.37294e-07
2.37487e-07
2.3768e-07
2.37874e-07
2.38068e-07
2.38262e-07
2.38457e-07
2.38652e-07
2.38847e-07
2.39042e-07
2.39238e-07
2.39434e-07
2.39631e-07
2.39828e-07
2.40025e-07
2.40222e-07
2.4042e-07
2.40618e-07
2.40816e-07
2.41015e-07
2.41214e-07
2.41414e-07
2.41613e-07
2.41813e-07
2.42014e-07
2.42214e-07
2.42416e-07
2.42617e-07
2.42819e-07
2.43021e-07
2.43223e-07
2.43426e-07
2.43629e-07
2.43832e-07
2.44036e-07
2.4424e-07
2.44445e-07
2.44649e-07
2.44854e-07
2.4506e-07
2.45266e-07
2.45472e-07
2.45678e-07
2.45885e-07
2.46092e-07
2.463e-07
2.46508e-07
2.46716e-07
2.46925e-07
2.47134e-07
2.47343e-07
2.47553e-07
2.47763e-07
2.47973e-07
2.48184e-07
2.48395e-07
2.48607e-07
2.48819e-07
2.49031e-07
2.49244e-07
2.49457e-07
2.4967e-07
2.49884e-07
2.50098e-07
2.50312e-07
2.50527e-07
2.50742e-07
2.50958e-07
2.51174e-07
2.5139e-07
2.51607e-07
2.51824e-07
2.52041e-07
2.52259e-07
2.52477e-07
2.52696e-07
2.52915e-07
2.53134e-07
2.53354e-07
2.53574e-07
2.53794e-07
2.54015e-07
2.54236e-07
2.54458e-07
2.5468e-07
2.54903e-07
2.55125e-07
2.55348e-07
2.55572e-07
2.55796e-07
2.5602e-07
2.56245e-07
2.5647e-07
2.56696e-07
2.56922e-07
2.57148e-07
2.57375e-07
2.57602e-07
2.57829e-07
2.58057e-07
2.58286e-07
2.58514e-07
2.58743e-07
2.58973e-07
2.59203e-07
2.59433e-07
2.59664e-07
2.59895e-07
2.60126e-07
2.60358e-07
2.6059e-07
2.60823e-07
2.61056e-07
2.6129e-07
2.61524e-07
2.61758e-07
2.61993e-07
2.62228e-07
2.62464e-07
2.627e-07
2.62936e-07
2.63173e-07
2.6341e-07
2.63648e-07
2.63886e-07
2.64125e-07
2.64364e-07
2.64603e-07
2.64843e-07
2.65083e-07
2.65324e-07
2.65565e-07
2.65806e-07
2.66048e-07
2.66291e-07
2.66534e-07
2.66777e-07
2.67021e-07
2.67265e-07
2.6751e-07
2.67755e-07
2.68e-07
2.68246e-07
2.68493e-07
2.68739e-07
2.68987e-07
2.69235e-07
2.69483e-07
2.69731e-07
2.69981e-07
2.7023e-07
2.7048e-07
2.70731e-07
2.70982e-07
2.71233e-07
2.71485e-07
2.71738e-07
2.71991e-07
2.72244e-07
2.72498e-07
2.72752e-07
2.73007e-07
2.73263e-07
2.73518e-07
2.73775e-07
2.74032e-07
2.74289e-07
2.74547e-07
2.74805e-07
2.75064e-07
2.75323e-07
2.75583e-07
2.75843e-07
2.76104e-07
2.76365e-07
2.76625e-07
2.76887e-07
2.7715e-07
2.77413e-07
2.77677e-07
2.77941e-07
2.78206e-07
2.78472e-07
2.78738e-07
2.79004e-07
2.79271e-07
2.79538e-07
2.79806e-07
2.80075e-07
2.80344e-07
2.80614e-07
2.80884e-07
2.81154e-07
2.81426e-07
2.81697e-07
2.81969e-07
2.82242e-07
2.82516e-07
2.82789e-07
2.83064e-07
2.83339e-07
2.83614e-07
2.8389e-07
2.84167e-07
2.84444e-07
2.84722e-07
2.85e-07
2.85279e-07
2.85558e-07
2.85838e-07
2.86118e-07
2.86399e-07
2.86681e-07
2.86963e-07
2.87245e-07
2.87528e-07
2.87812e-07
2.88096e-07
2.88381e-07
2.88667e-07
2.88953e-07
2.89239e-07
2.89526e-07
2.89814e-07
2.90102e-07
2.90391e-07
2.9068e-07
2.9097e-07
2.9126e-07
2.91551e-07
2.91843e-07
2.92134e-07
2.92425e-07
2.92718e-07
2.93012e-07
2.93306e-07
2.93601e-07
2.93897e-07
2.94193e-07
2.94489e-07
2.94786e-07
2.95084e-07
2.95382e-07
2.95681e-07
2.95981e-07
2.96281e-07
2.96581e-07
2.96883e-07
2.97184e-07
2.97487e-07
2.9779e-07
2.98093e-07
2.98398e-07
2.98702e-07
2.99008e-07
2.99314e-07
2.9962e-07
2.99927e-07
3.00235e-07
3.00543e-07
3.00852e-07
3.01162e-07
3.01472e-07
3.01783e-07
3.02094e-07
3.02406e-07
3.02719e-07
3.03033e-07
3.03346e-07
3.03661e-07
3.03976e-07
3.04292e-07
3.04609e-07
3.04926e-07
3.05244e-07
3.05562e-07
3.05882e-07
3.06201e-07
3.06522e-07
3.06843e-07
3.07165e-07
3.07488e-07
3.07811e-07
3.08135e-07
3.08459e-07
3.08785e-07
3.09111e-07
3.09438e-07
3.09765e-07
3.10093e-07
3.10422e-07
3.10752e-07
3.11082e-07
3.11413e-07
3.11745e-07
3.12078e-07
3.12411e-07
3.12745e-07
3.1308e-07
3.13415e-07
3.13751e-07
3.14087e-07
3.14424e-07
3.14763e-07
3.15102e-07
3.15443e-07
3.15783e-07
3.16125e-07
3.16468e-07
3.16811e-07
3.17155e-07
3.175e-07
3.17846e-07
3.18193e-07
3.1854e-07
3.18888e-07
3.19237e-07
3.19585e-07
3.19935e-07
3.20287e-07
3.20639e-07
3.20991e-07
3.21345e-07
3.21699e-07
3.22055e-07
3.22411e-07
3.22768e-07
3.23125e-07
3.23484e-07
3.23843e-07
3.24204e-07
3.24565e-07
3.24927e-07
3.25289e-07
3.25653e-07
3.26017e-07
3.26382e-07
3.26748e-07
3.27115e-07
3.27483e-07
3.27851e-07
3.28221e-07
3.28591e-07
3.28962e-07
3.29334e-07
3.29707e-07
3.3008e-07
3.30455e-07
3.3083e-07
3.31207e-07
3.31584e-07
3.31962e-07
3.32341e-07
3.32721e-07
3.33101e-07
3.33483e-07
3.33866e-07
3.34249e-07
3.34634e-07
3.3502e-07
3.35406e-07
3.35794e-07
3.36182e-07
3.36572e-07
3.36963e-07
3.37354e-07
3.37747e-07
3.38142e-07
3.38537e-07
3.38934e-07
3.39331e-07
3.39731e-07
3.40131e-07
3.40533e-07
3.40937e-07
3.41342e-07
3.41748e-07
3.42157e-07
3.42567e-07
3.42979e-07
3.43393e-07
3.43809e-07
3.44227e-07
3.44648e-07
3.4507e-07
3.45496e-07
3.45924e-07
3.46355e-07
3.4679e-07
3.47227e-07
3.47668e-07
3.48113e-07
3.48562e-07
3.49015e-07
3.49473e-07
3.49935e-07
3.50403e-07
3.50876e-07
3.51356e-07
3.51842e-07
3.52334e-07
3.52835e-07
3.53343e-07
3.5386e-07
3.54386e-07
3.54922e-07
3.55468e-07
3.56026e-07
3.56597e-07
3.5718e-07
3.57778e-07
3.5839e-07
3.5902e-07
3.59666e-07
3.60332e-07
3.61017e-07
3.61724e-07
3.62455e-07
3.6321e-07
3.63992e-07
3.64803e-07
3.65645e-07
3.66519e-07
3.67428e-07
3.68375e-07
3.69363e-07
3.70393e-07
3.7147e-07
3.72596e-07
3.73775e-07
3.75009e-07
3.76304e-07
3.77663e-07
3.7909e-07
3.8059e-07
3.82167e-07
3.83828e-07
3.85576e-07
3.87417e-07
3.89359e-07
3.91406e-07
3.93565e-07
3.95844e-07
3.9825e-07
4.0079e-07
4.03472e-07
4.06306e-07
4.09299e-07
4.12462e-07
4.15804e-07
4.19335e-07
4.23066e-07
4.27008e-07
4.31173e-07
4.35573e-07
4.4022e-07
4.45127e-07
4.50309e-07
4.55779e-07
4.61552e-07
4.67643e-07
4.74068e-07
4.80841e-07
4.87981e-07
4.95504e-07
5.03427e-07
5.11768e-07
5.20544e-07
5.29775e-07
5.39478e-07
5.49673e-07
5.60378e-07
5.71611e-07
5.83392e-07
5.9574e-07
6.08672e-07
6.22206e-07
6.36359e-07
6.51149e-07
6.6659e-07
6.82697e-07
6.99483e-07
7.16959e-07
7.35136e-07
7.54021e-07
7.73618e-07
7.9393e-07
8.14957e-07
8.36694e-07
8.59132e-07
8.8226e-07
9.0606e-07
9.3051e-07
9.55582e-07
9.81241e-07
1.00745e-06
1.03415e-06
1.06131e-06
1.08884e-06
1.11668e-06
1.14476e-06
1.17299e-06
1.20126e-06
1.22947e-06
1.25751e-06
1.28525e-06
1.31257e-06
1.33932e-06
1.36535e-06
1.3905e-06
1.41462e-06
1.43754e-06
1.45908e-06
1.47906e-06
1.49731e-06
1.51365e-06
1.52789e-06
1.53986e-06
1.54937e-06
1.55627e-06
1.56036e-06
1.56149e-06
1.55956e-06
1.55438e-06
1.54583e-06
1.53378e-06
1.51814e-06
1.4988e-06
1.47569e-06
1.44873e-06
1.41787e-06
1.38309e-06
1.34435e-06
1.30166e-06
1.25505e-06
1.20455e-06
1.15022e-06
1.09217e-06
1.03049e-06
9.65349e-07
8.96923e-07
8.25439e-07
7.51165e-07
6.74424e-07
5.95597e-07
5.15137e-07
4.33577e-07
3.51545e-07
2.69774e-07
1.89126e-07
1.10598e-07
3.53366e-08
)
;

boundaryField
{
    fixedWall
    {
        type            zeroGradient;
    }
    outlet
    {
        type            inletOutlet;
        inletValue      uniform 0;
        value           uniform 0;
    }
    defaultFaces
    {
        type            empty;
    }
}


// ************************************************************************* //
