/*--------------------------------*- C++ -*----------------------------------*\
| =========                 |                                                 |
| \\      /  F ield         | OpenFOAM: The Open Source CFD Toolbox           |
|  \\    /   O peration     | Version:  2406                                  |
|   \\  /    A nd           | Website:  www.openfoam.com                      |
|    \\/     M anipulation  |                                                 |
\*---------------------------------------------------------------------------*/
FoamFile
{
    version     2.0;
    format      ascii;
    arch        "LSB;label=32;scalar=64";
    class       volScalarField;
    location    "10.4";
    object      Qdot;
}
// * * * * * * * * * * * * * * * * * * * * * * * * * * * * * * * * * * * * * //

dimensions      [1 -1 -3 0 0 0 0];

internalField   nonuniform List<scalar> 
1000
(
4.98397e-14
-2.8451e-17
-3.81434e-16
1.70674e-09
9.31558e-09
4.04767e-08
1.59474e-07
5.01249e-07
1.38095e-06
3.4027e-06
7.6054e-06
1.57065e-05
3.02325e-05
5.48062e-05
9.42678e-05
0.000154839
0.000244179
0.000371359
0.00054679
0.000782017
0.00108947
0.00148216
0.00197326
0.00257575
0.00330199
0.00416329
0.00516958
0.00632904
0.00764779
0.00912974
0.0107764
0.0125867
0.0145571
0.0166817
0.0189522
0.0213581
0.023887
0.0265248
0.029256
0.0320639
0.0349312
0.0378399
0.0407721
0.0437098
0.0466355
0.0495322
0.0523838
0.0551754
0.057893
0.0605242
0.0630576
0.0654837
0.067794
0.0699819
0.0720419
0.0739702
0.0757639
0.0774219
0.0789438
0.0803306
0.0815842
0.0827071
0.083703
0.084576
0.0853307
0.0859723
0.0865064
0.0869387
0.0872752
0.0875221
0.0876855
0.0877715
0.0877862
0.0877358
0.0876259
0.0874623
0.0872505
0.0869957
0.0867029
0.0863769
0.0860221
0.0856428
0.085243
0.0848263
0.0843961
0.0839556
0.0835078
0.0830552
0.0826004
0.0821455
0.0816926
0.0812434
0.0807995
0.0803624
0.0799334
0.0795135
0.0791037
0.0787048
0.0783175
0.0779424
0.07758
0.0772306
0.0768946
0.0765721
0.0762633
0.0759682
0.075687
0.0754194
0.0751655
0.0749251
0.074698
0.074484
0.074283
0.0740947
0.0739187
0.0737548
0.0736028
0.0734622
0.0733327
0.0732141
0.073106
0.0730081
0.0729199
0.0728412
0.0727717
0.0727109
0.0726586
0.0726145
0.0725781
0.0725492
0.0725276
0.0725127
0.0725045
0.0725025
0.0725066
0.0725163
0.0725316
0.072552
0.0725774
0.0726075
0.0726421
0.0726809
0.0727239
0.0727706
0.072821
0.0728748
0.072932
0.0729922
0.0730553
0.0731212
0.0731897
0.0732607
0.073334
0.0734095
0.073487
0.0735666
0.073648
0.0737311
0.0738158
0.0739018
0.0739896
0.0740788
0.0741693
0.0742609
0.0743537
0.0744476
0.0745425
0.0746384
0.0747352
0.0748328
0.0749312
0.0750304
0.0751303
0.0752304
0.0753316
0.0754333
0.0755356
0.0756384
0.0757416
0.0758453
0.0759495
0.076054
0.076159
0.0762644
0.0763696
0.0764757
0.076582
0.0766887
0.0767956
0.0769028
0.0770102
0.0771179
0.0772259
0.0773341
0.0774425
0.0775512
0.0776601
0.0777692
0.0778785
0.077988
0.0780977
0.0782076
0.0783177
0.078428
0.0785385
0.0786492
0.07876
0.0788711
0.0789823
0.0790937
0.0792053
0.0793171
0.0794291
0.0795413
0.0796536
0.0797661
0.0798788
0.0799917
0.0801048
0.0802181
0.0803315
0.0804451
0.080559
0.080673
0.0807872
0.0809016
0.0810161
0.0811309
0.0812459
0.0813611
0.0814764
0.081592
0.0817077
0.0818237
0.0819398
0.0820562
0.0821728
0.0822895
0.0824065
0.0825237
0.0826411
0.0827587
0.0828761
0.0829936
0.0831119
0.0832304
0.0833492
0.0834681
0.0835872
0.0837066
0.0838261
0.0839459
0.0840659
0.0841861
0.0843065
0.0844272
0.084548
0.0846691
0.0847904
0.0849119
0.0850337
0.0851557
0.0852779
0.0854003
0.085523
0.0856459
0.085769
0.0858924
0.086016
0.0861398
0.0862639
0.0863882
0.0865127
0.0866375
0.0867625
0.0868878
0.0870133
0.087139
0.087265
0.0873913
0.0875177
0.0876445
0.0877714
0.0878986
0.0880261
0.0881538
0.0882818
0.08841
0.0885385
0.0886672
0.0887962
0.0889254
0.0890549
0.0891847
0.0893147
0.0894449
0.0895755
0.0897062
0.0898373
0.0899684
0.0900992
0.0902311
0.0903632
0.0904956
0.0906283
0.0907612
0.0908944
0.0910279
0.0911617
0.0912957
0.09143
0.0915646
0.0916994
0.0918346
0.09197
0.0921057
0.0922417
0.0923779
0.0925145
0.0926514
0.0927885
0.0929259
0.0930636
0.0932016
0.0933399
0.0934785
0.0936174
0.0937566
0.0938961
0.0940358
0.0941759
0.0943163
0.094457
0.094598
0.0947393
0.0948809
0.0950228
0.095165
0.0953076
0.0954504
0.0955936
0.0957371
0.0958808
0.096025
0.0961694
0.0963142
0.0964592
0.0966046
0.0967504
0.0968964
0.0970428
0.0971895
0.0973366
0.097484
0.0976317
0.0977797
0.0979281
0.0980768
0.0982259
0.0983753
0.0985251
0.0986751
0.0988256
0.0989764
0.0991275
0.099279
0.0994308
0.099583
0.0997355
0.0998884
0.100042
0.100195
0.100349
0.100504
0.100658
0.100813
0.100969
0.101124
0.101281
0.101437
0.101594
0.101751
0.101909
0.102067
0.102225
0.102384
0.102543
0.102702
0.102862
0.103023
0.103183
0.103344
0.103506
0.103667
0.103829
0.103992
0.104155
0.104318
0.104482
0.104646
0.10481
0.104975
0.10514
0.105306
0.105472
0.105639
0.105805
0.105973
0.10614
0.106308
0.106477
0.106645
0.106815
0.106984
0.107154
0.107325
0.107496
0.107667
0.107838
0.10801
0.108183
0.108356
0.108529
0.108703
0.108877
0.109051
0.109226
0.109402
0.109577
0.109754
0.10993
0.110107
0.110285
0.110463
0.110641
0.11082
0.110999
0.111179
0.111359
0.111539
0.11172
0.111901
0.112083
0.112265
0.112448
0.112631
0.112815
0.112999
0.113183
0.113368
0.113553
0.113739
0.113925
0.114112
0.114299
0.114487
0.114675
0.114863
0.115052
0.115242
0.115431
0.115622
0.115813
0.116004
0.116196
0.116388
0.116581
0.116774
0.116968
0.117162
0.117357
0.117552
0.117747
0.117943
0.11814
0.118337
0.118535
0.118733
0.118931
0.11913
0.11933
0.11953
0.119731
0.119932
0.120133
0.120335
0.120538
0.120741
0.120945
0.121149
0.121354
0.121559
0.121765
0.121971
0.122178
0.122385
0.122593
0.122801
0.12301
0.123219
0.123429
0.12364
0.123851
0.124063
0.124275
0.124487
0.124701
0.124914
0.125129
0.125344
0.125559
0.125775
0.125992
0.126209
0.126426
0.126645
0.126863
0.127083
0.127303
0.127523
0.127744
0.127966
0.128188
0.128411
0.128635
0.128859
0.129083
0.129309
0.129534
0.129761
0.129988
0.130215
0.130443
0.130672
0.130902
0.131131
0.131362
0.131593
0.131825
0.132057
0.13229
0.132524
0.132758
0.132993
0.133229
0.133465
0.133702
0.133939
0.134177
0.134415
0.134655
0.134895
0.135135
0.135376
0.135618
0.135861
0.136104
0.136347
0.136592
0.136837
0.137083
0.137329
0.137576
0.137824
0.138072
0.138321
0.138571
0.138821
0.139072
0.139324
0.139576
0.139829
0.140083
0.140337
0.140592
0.140848
0.141104
0.141362
0.14162
0.141878
0.142137
0.142397
0.142658
0.142919
0.143182
0.143444
0.143708
0.143972
0.144237
0.144503
0.14477
0.145037
0.145305
0.145573
0.145843
0.146113
0.146384
0.146656
0.146928
0.147201
0.147475
0.14775
0.148026
0.148302
0.148579
0.148857
0.149135
0.149415
0.149695
0.149976
0.150258
0.15054
0.150824
0.151108
0.151393
0.151679
0.151965
0.152253
0.152541
0.15283
0.15312
0.153411
0.153702
0.153993
0.154286
0.15458
0.154875
0.155171
0.155468
0.155766
0.156064
0.156363
0.156663
0.156965
0.157266
0.157569
0.157873
0.158178
0.158483
0.158789
0.159097
0.159405
0.159714
0.160024
0.160335
0.160647
0.160959
0.161273
0.161588
0.161903
0.16222
0.162537
0.162855
0.163175
0.163495
0.163816
0.164138
0.164461
0.164785
0.16511
0.165436
0.165763
0.166091
0.16642
0.16675
0.16708
0.167412
0.167745
0.168079
0.168413
0.168749
0.169086
0.169424
0.169762
0.170102
0.170443
0.170785
0.171128
0.171471
0.171816
0.172159
0.172506
0.172854
0.173203
0.173553
0.173904
0.174256
0.174609
0.174963
0.175318
0.175674
0.176031
0.17639
0.176749
0.17711
0.177471
0.177834
0.178198
0.178562
0.178928
0.179295
0.179664
0.180033
0.180403
0.180775
0.181147
0.181521
0.181896
0.182272
0.182649
0.183027
0.183407
0.183787
0.184169
0.184552
0.184936
0.185322
0.185708
0.186096
0.186485
0.186875
0.187266
0.187659
0.188053
0.188448
0.188844
0.189242
0.18964
0.190041
0.190442
0.190844
0.191248
0.191654
0.19206
0.192468
0.192877
0.193287
0.193699
0.194112
0.194527
0.194942
0.19536
0.195778
0.196198
0.196619
0.197042
0.197466
0.197891
0.198318
0.198744
0.199173
0.199604
0.200036
0.20047
0.200906
0.201343
0.201781
0.202221
0.202662
0.203105
0.203549
0.203995
0.204443
0.204892
0.205343
0.205795
0.206246
0.206699
0.207155
0.207613
0.208073
0.208534
0.208996
0.20946
0.209926
0.210393
0.210862
0.211332
0.211804
0.212277
0.212752
0.213229
0.213707
0.214187
0.214669
0.215152
0.215636
0.216123
0.216611
0.2171
0.217591
0.218084
0.218579
0.219075
0.219573
0.220072
0.220573
0.221076
0.22158
0.222087
0.222594
0.223104
0.223615
0.224128
0.224642
0.225158
0.225676
0.226196
0.226717
0.22724
0.227764
0.228291
0.228819
0.229349
0.22988
0.230413
0.230948
0.231485
0.232023
0.232564
0.233106
0.233649
0.234195
0.234742
0.235291
0.235842
0.236395
0.236949
0.237506
0.238064
0.238624
0.239186
0.23975
0.240316
0.240884
0.241454
0.242027
0.242601
0.243178
0.243757
0.244338
0.244922
0.245508
0.246098
0.24669
0.247284
0.247882
0.248484
0.249088
0.249697
0.250309
0.250926
0.251547
0.252173
0.252804
0.25344
0.254083
0.254732
0.255388
0.256052
0.256724
0.257404
0.258095
0.258795
0.259508
0.260232
0.26097
0.261722
0.262491
0.263276
0.26408
0.264904
0.26575
0.26662
0.267516
0.268439
0.269393
0.270379
0.271401
0.27246
0.273561
0.274706
0.275899
0.277143
0.278443
0.279802
0.281224
0.282715
0.284279
0.285921
0.287647
0.289462
0.291372
0.293384
0.295503
0.297737
0.300093
0.302577
0.305197
0.307961
0.310876
0.313951
0.317193
0.320611
0.324213
0.328008
0.332002
0.336205
0.340623
0.345265
0.350136
0.355243
0.360592
0.366186
0.37203
0.378124
0.38447
0.391067
0.397909
0.404993
0.412308
0.419843
0.427584
0.435509
0.443598
0.45182
0.460144
0.468529
0.476933
0.485303
0.493583
0.501706
0.509603
0.517194
0.524391
0.531103
0.537229
0.542662
0.54729
0.550997
0.553662
0.555165
0.555384
0.554201
0.551502
0.547181
0.541145
0.533313
0.523623
0.512035
0.498534
0.483133
0.465875
0.446838
0.426135
0.403914
0.38036
0.355689
0.330151
0.304019
0.277589
0.251171
0.225077
0.199619
0.175093
0.151774
0.129904
0.109685
0.0912947
0.0749579
0.0603849
0.0477675
0.0370499
0.0281306
0.0208697
0.0150979
0.0106265
0.00725821
0.00479707
0.00305783
0.00187298
0.00109775
0.000612678
0.000323833
0.000161069
7.48372e-05
3.2207e-05
1.27113e-05
4.54843e-06
1.45502e-06
4.09319e-07
9.93674e-08
2.04098e-08
3.80442e-09
7.99175e-10
3.23523e-10
-6.20445e-18
-9.62087e-11
-6.987e-21
0
)
;

boundaryField
{
    fixedWall
    {
        type            calculated;
        value           uniform 0;
    }
    outlet
    {
        type            calculated;
        value           uniform 0;
    }
    defaultFaces
    {
        type            empty;
    }
}


// ************************************************************************* //
