/*--------------------------------*- C++ -*----------------------------------*\
| =========                 |                                                 |
| \\      /  F ield         | OpenFOAM: The Open Source CFD Toolbox           |
|  \\    /   O peration     | Version:  2406                                  |
|   \\  /    A nd           | Website:  www.openfoam.com                      |
|    \\/     M anipulation  |                                                 |
\*---------------------------------------------------------------------------*/
FoamFile
{
    version     2.0;
    format      ascii;
    arch        "LSB;label=32;scalar=64";
    class       volScalarField;
    location    "14.3";
    object      O2;
}
// * * * * * * * * * * * * * * * * * * * * * * * * * * * * * * * * * * * * * //

dimensions      [0 0 0 0 0 0 0];

internalField   nonuniform List<scalar> 
1000
(
9.97167e-07
9.95838e-07
9.93394e-07
9.89994e-07
9.85764e-07
9.80802e-07
9.75191e-07
9.69e-07
9.62286e-07
9.55099e-07
9.47483e-07
9.39478e-07
9.31117e-07
9.22432e-07
9.13451e-07
9.04199e-07
8.947e-07
8.84975e-07
8.75045e-07
8.64928e-07
8.54642e-07
8.44202e-07
8.33625e-07
8.22924e-07
8.12115e-07
8.01208e-07
7.90218e-07
7.79156e-07
7.68033e-07
7.5686e-07
7.45649e-07
7.34409e-07
7.2315e-07
7.11882e-07
7.00614e-07
6.89355e-07
6.78115e-07
6.66901e-07
6.55723e-07
6.44588e-07
6.33505e-07
6.2248e-07
6.11523e-07
6.00639e-07
5.89837e-07
5.79122e-07
5.68502e-07
5.57984e-07
5.47572e-07
5.37273e-07
5.27092e-07
5.17036e-07
5.07108e-07
4.97313e-07
4.87656e-07
4.7814e-07
4.6877e-07
4.5955e-07
4.50481e-07
4.41567e-07
4.3281e-07
4.24213e-07
4.15778e-07
4.07506e-07
3.99398e-07
3.91455e-07
3.83679e-07
3.76069e-07
3.68626e-07
3.6135e-07
3.5424e-07
3.47296e-07
3.40518e-07
3.33904e-07
3.27454e-07
3.21166e-07
3.15038e-07
3.09069e-07
3.03258e-07
2.97601e-07
2.92099e-07
2.86747e-07
2.81544e-07
2.76489e-07
2.71577e-07
2.66808e-07
2.62177e-07
2.57684e-07
2.53324e-07
2.49096e-07
2.44997e-07
2.41024e-07
2.37175e-07
2.33446e-07
2.29834e-07
2.26338e-07
2.22955e-07
2.19681e-07
2.16514e-07
2.13451e-07
2.1049e-07
2.07628e-07
2.04862e-07
2.0219e-07
1.99609e-07
1.97117e-07
1.94711e-07
1.92389e-07
1.90149e-07
1.87987e-07
1.85902e-07
1.83892e-07
1.81954e-07
1.80086e-07
1.78286e-07
1.76552e-07
1.74882e-07
1.73274e-07
1.71725e-07
1.70235e-07
1.68801e-07
1.67421e-07
1.66094e-07
1.64818e-07
1.63591e-07
1.62411e-07
1.61278e-07
1.60189e-07
1.59144e-07
1.5814e-07
1.57175e-07
1.5625e-07
1.55363e-07
1.54511e-07
1.53694e-07
1.52911e-07
1.52161e-07
1.51442e-07
1.50753e-07
1.50094e-07
1.49462e-07
1.48858e-07
1.4828e-07
1.47727e-07
1.47199e-07
1.46694e-07
1.46211e-07
1.45751e-07
1.45311e-07
1.44892e-07
1.44492e-07
1.4411e-07
1.43747e-07
1.43401e-07
1.43072e-07
1.42759e-07
1.42461e-07
1.42178e-07
1.4191e-07
1.41655e-07
1.41414e-07
1.41185e-07
1.40968e-07
1.40764e-07
1.4057e-07
1.40388e-07
1.40216e-07
1.40054e-07
1.39901e-07
1.39758e-07
1.39624e-07
1.39498e-07
1.39381e-07
1.39271e-07
1.39169e-07
1.39074e-07
1.38986e-07
1.38905e-07
1.38831e-07
1.38762e-07
1.387e-07
1.38643e-07
1.38591e-07
1.38545e-07
1.38504e-07
1.38468e-07
1.38436e-07
1.38408e-07
1.38385e-07
1.38366e-07
1.38351e-07
1.3834e-07
1.38332e-07
1.38327e-07
1.38326e-07
1.38328e-07
1.38333e-07
1.38341e-07
1.38351e-07
1.38364e-07
1.3838e-07
1.38398e-07
1.38418e-07
1.38441e-07
1.38466e-07
1.38493e-07
1.38522e-07
1.38552e-07
1.38585e-07
1.38619e-07
1.38655e-07
1.38692e-07
1.38731e-07
1.38771e-07
1.38813e-07
1.38856e-07
1.389e-07
1.38945e-07
1.38992e-07
1.39039e-07
1.39088e-07
1.39138e-07
1.39188e-07
1.3924e-07
1.39292e-07
1.39345e-07
1.39399e-07
1.39454e-07
1.39509e-07
1.39566e-07
1.39622e-07
1.3968e-07
1.39738e-07
1.39797e-07
1.39856e-07
1.39916e-07
1.39976e-07
1.40036e-07
1.40098e-07
1.40159e-07
1.40221e-07
1.40284e-07
1.40347e-07
1.4041e-07
1.40474e-07
1.40538e-07
1.40601e-07
1.40666e-07
1.40731e-07
1.40796e-07
1.40861e-07
1.40927e-07
1.40993e-07
1.41059e-07
1.41125e-07
1.41192e-07
1.41259e-07
1.41326e-07
1.41393e-07
1.4146e-07
1.41528e-07
1.41596e-07
1.41664e-07
1.41732e-07
1.418e-07
1.41868e-07
1.41937e-07
1.42005e-07
1.42074e-07
1.42143e-07
1.42212e-07
1.42281e-07
1.4235e-07
1.4242e-07
1.42489e-07
1.42559e-07
1.42628e-07
1.42698e-07
1.42768e-07
1.42838e-07
1.42908e-07
1.42978e-07
1.43048e-07
1.43118e-07
1.43189e-07
1.43259e-07
1.4333e-07
1.434e-07
1.43471e-07
1.43542e-07
1.43612e-07
1.43683e-07
1.43754e-07
1.43825e-07
1.43896e-07
1.43968e-07
1.44039e-07
1.4411e-07
1.44182e-07
1.44253e-07
1.44325e-07
1.44396e-07
1.44468e-07
1.44539e-07
1.44611e-07
1.44683e-07
1.44755e-07
1.44827e-07
1.44899e-07
1.44971e-07
1.45043e-07
1.45115e-07
1.45188e-07
1.4526e-07
1.45332e-07
1.45405e-07
1.45477e-07
1.4555e-07
1.45623e-07
1.45695e-07
1.45768e-07
1.45841e-07
1.45914e-07
1.45987e-07
1.4606e-07
1.46133e-07
1.46206e-07
1.46279e-07
1.46353e-07
1.46426e-07
1.46499e-07
1.46573e-07
1.46647e-07
1.4672e-07
1.46794e-07
1.46868e-07
1.46942e-07
1.47015e-07
1.47089e-07
1.47163e-07
1.47237e-07
1.47311e-07
1.47386e-07
1.4746e-07
1.47534e-07
1.47609e-07
1.47683e-07
1.47758e-07
1.47833e-07
1.47907e-07
1.47982e-07
1.48057e-07
1.48132e-07
1.48207e-07
1.48282e-07
1.48357e-07
1.48433e-07
1.48508e-07
1.48583e-07
1.48659e-07
1.48734e-07
1.4881e-07
1.48886e-07
1.48962e-07
1.49038e-07
1.49113e-07
1.49189e-07
1.49265e-07
1.49342e-07
1.49418e-07
1.49494e-07
1.49571e-07
1.49647e-07
1.49724e-07
1.49801e-07
1.49877e-07
1.49954e-07
1.50031e-07
1.50108e-07
1.50185e-07
1.50262e-07
1.50339e-07
1.50417e-07
1.50494e-07
1.50572e-07
1.50649e-07
1.50727e-07
1.50805e-07
1.50882e-07
1.5096e-07
1.51038e-07
1.51116e-07
1.51194e-07
1.51272e-07
1.51351e-07
1.51429e-07
1.51508e-07
1.51586e-07
1.51665e-07
1.51744e-07
1.51822e-07
1.51901e-07
1.5198e-07
1.52059e-07
1.52139e-07
1.52218e-07
1.52297e-07
1.52376e-07
1.52456e-07
1.52536e-07
1.52615e-07
1.52695e-07
1.52775e-07
1.52855e-07
1.52935e-07
1.53015e-07
1.53095e-07
1.53175e-07
1.53256e-07
1.53336e-07
1.53417e-07
1.53497e-07
1.53578e-07
1.53659e-07
1.5374e-07
1.53821e-07
1.53902e-07
1.53983e-07
1.54064e-07
1.54145e-07
1.54227e-07
1.54308e-07
1.5439e-07
1.54471e-07
1.54553e-07
1.54635e-07
1.54717e-07
1.54799e-07
1.54881e-07
1.54963e-07
1.55045e-07
1.55128e-07
1.5521e-07
1.55293e-07
1.55375e-07
1.55458e-07
1.55541e-07
1.55624e-07
1.55707e-07
1.5579e-07
1.55873e-07
1.55956e-07
1.5604e-07
1.56123e-07
1.56206e-07
1.5629e-07
1.56374e-07
1.56458e-07
1.56541e-07
1.56625e-07
1.5671e-07
1.56794e-07
1.56878e-07
1.56962e-07
1.57047e-07
1.57131e-07
1.57216e-07
1.573e-07
1.57385e-07
1.5747e-07
1.57555e-07
1.5764e-07
1.57725e-07
1.57811e-07
1.57896e-07
1.57982e-07
1.58067e-07
1.58153e-07
1.58239e-07
1.58324e-07
1.5841e-07
1.58496e-07
1.58582e-07
1.58669e-07
1.58755e-07
1.58841e-07
1.58928e-07
1.59014e-07
1.59101e-07
1.59188e-07
1.59275e-07
1.59362e-07
1.59449e-07
1.59536e-07
1.59623e-07
1.5971e-07
1.59798e-07
1.59885e-07
1.59973e-07
1.60061e-07
1.60148e-07
1.60236e-07
1.60324e-07
1.60413e-07
1.60501e-07
1.60589e-07
1.60677e-07
1.60766e-07
1.60855e-07
1.60943e-07
1.61032e-07
1.61121e-07
1.6121e-07
1.61299e-07
1.61388e-07
1.61477e-07
1.61567e-07
1.61656e-07
1.61746e-07
1.61836e-07
1.61925e-07
1.62015e-07
1.62105e-07
1.62195e-07
1.62285e-07
1.62376e-07
1.62466e-07
1.62557e-07
1.62647e-07
1.62738e-07
1.62829e-07
1.62919e-07
1.6301e-07
1.63102e-07
1.63193e-07
1.63284e-07
1.63375e-07
1.63467e-07
1.63558e-07
1.6365e-07
1.63742e-07
1.63834e-07
1.63926e-07
1.64018e-07
1.6411e-07
1.64202e-07
1.64295e-07
1.64387e-07
1.6448e-07
1.64572e-07
1.64665e-07
1.64758e-07
1.64851e-07
1.64944e-07
1.65038e-07
1.65131e-07
1.65224e-07
1.65318e-07
1.65412e-07
1.65506e-07
1.65599e-07
1.65693e-07
1.65787e-07
1.65881e-07
1.65976e-07
1.6607e-07
1.66165e-07
1.66259e-07
1.66354e-07
1.66449e-07
1.66544e-07
1.66639e-07
1.66734e-07
1.66829e-07
1.66925e-07
1.6702e-07
1.67116e-07
1.67211e-07
1.67307e-07
1.67403e-07
1.67499e-07
1.67595e-07
1.67691e-07
1.67788e-07
1.67884e-07
1.67981e-07
1.68078e-07
1.68174e-07
1.68271e-07
1.68368e-07
1.68466e-07
1.68563e-07
1.6866e-07
1.68758e-07
1.68855e-07
1.68953e-07
1.69051e-07
1.69149e-07
1.69247e-07
1.69345e-07
1.69443e-07
1.69542e-07
1.6964e-07
1.69739e-07
1.69838e-07
1.69936e-07
1.70035e-07
1.70135e-07
1.70234e-07
1.70333e-07
1.70433e-07
1.70532e-07
1.70632e-07
1.70732e-07
1.70832e-07
1.70932e-07
1.71032e-07
1.71132e-07
1.71232e-07
1.71333e-07
1.71434e-07
1.71534e-07
1.71635e-07
1.71736e-07
1.71837e-07
1.71939e-07
1.7204e-07
1.72141e-07
1.72243e-07
1.72345e-07
1.72447e-07
1.72548e-07
1.72651e-07
1.72753e-07
1.72855e-07
1.72958e-07
1.7306e-07
1.73163e-07
1.73266e-07
1.73369e-07
1.73472e-07
1.73575e-07
1.73678e-07
1.73781e-07
1.73885e-07
1.73989e-07
1.74092e-07
1.74196e-07
1.743e-07
1.74405e-07
1.74509e-07
1.74613e-07
1.74718e-07
1.74823e-07
1.74927e-07
1.75032e-07
1.75137e-07
1.75242e-07
1.75348e-07
1.75453e-07
1.75559e-07
1.75664e-07
1.7577e-07
1.75876e-07
1.75982e-07
1.76088e-07
1.76195e-07
1.76301e-07
1.76407e-07
1.76514e-07
1.76621e-07
1.76728e-07
1.76835e-07
1.76942e-07
1.77049e-07
1.77157e-07
1.77264e-07
1.77372e-07
1.7748e-07
1.77588e-07
1.77696e-07
1.77804e-07
1.77912e-07
1.78021e-07
1.78129e-07
1.78238e-07
1.78347e-07
1.78456e-07
1.78565e-07
1.78674e-07
1.78783e-07
1.78893e-07
1.79002e-07
1.79112e-07
1.79222e-07
1.79332e-07
1.79442e-07
1.79552e-07
1.79663e-07
1.79773e-07
1.79884e-07
1.79995e-07
1.80106e-07
1.80217e-07
1.80328e-07
1.8044e-07
1.80551e-07
1.80663e-07
1.80775e-07
1.80887e-07
1.80999e-07
1.81111e-07
1.81224e-07
1.81336e-07
1.81449e-07
1.81562e-07
1.81675e-07
1.81788e-07
1.81902e-07
1.82015e-07
1.82129e-07
1.82243e-07
1.82357e-07
1.82471e-07
1.82585e-07
1.827e-07
1.82815e-07
1.8293e-07
1.83045e-07
1.8316e-07
1.83275e-07
1.83391e-07
1.83507e-07
1.83623e-07
1.83739e-07
1.83855e-07
1.83972e-07
1.84089e-07
1.84206e-07
1.84323e-07
1.84441e-07
1.84559e-07
1.84677e-07
1.84795e-07
1.84913e-07
1.85032e-07
1.85151e-07
1.85271e-07
1.8539e-07
1.8551e-07
1.8563e-07
1.85751e-07
1.85872e-07
1.85993e-07
1.86115e-07
1.86237e-07
1.86359e-07
1.86482e-07
1.86606e-07
1.86729e-07
1.86853e-07
1.86978e-07
1.87103e-07
1.87229e-07
1.87356e-07
1.87482e-07
1.8761e-07
1.87738e-07
1.87867e-07
1.87997e-07
1.88127e-07
1.88259e-07
1.88391e-07
1.88524e-07
1.88657e-07
1.88792e-07
1.88928e-07
1.89065e-07
1.89204e-07
1.89343e-07
1.89484e-07
1.89626e-07
1.89769e-07
1.89914e-07
1.90061e-07
1.9021e-07
1.9036e-07
1.90512e-07
1.90666e-07
1.90822e-07
1.9098e-07
1.91141e-07
1.91304e-07
1.9147e-07
1.91639e-07
1.91811e-07
1.91985e-07
1.92163e-07
1.92345e-07
1.9253e-07
1.92719e-07
1.92911e-07
1.93109e-07
1.9331e-07
1.93517e-07
1.93728e-07
1.93945e-07
1.94168e-07
1.94396e-07
1.9463e-07
1.94871e-07
1.95119e-07
1.95374e-07
1.95637e-07
1.95908e-07
1.96188e-07
1.96476e-07
1.96773e-07
1.97081e-07
1.97399e-07
1.97728e-07
1.98068e-07
1.98421e-07
1.98786e-07
1.99164e-07
1.99557e-07
1.99964e-07
2.00387e-07
2.00826e-07
2.01282e-07
2.01755e-07
2.02248e-07
2.0276e-07
2.03293e-07
2.03848e-07
2.04425e-07
2.05026e-07
2.05652e-07
2.06304e-07
2.06983e-07
2.07691e-07
2.08428e-07
2.09197e-07
2.09999e-07
2.10835e-07
2.11706e-07
2.12615e-07
2.13563e-07
2.14551e-07
2.15582e-07
2.16658e-07
2.1778e-07
2.1895e-07
2.2017e-07
2.21444e-07
2.22771e-07
2.24156e-07
2.25601e-07
2.27107e-07
2.28677e-07
2.30315e-07
2.32022e-07
2.33802e-07
2.35658e-07
2.37591e-07
2.39606e-07
2.41705e-07
2.43892e-07
2.4617e-07
2.48542e-07
2.51012e-07
2.53583e-07
2.56259e-07
2.59044e-07
2.61942e-07
2.64955e-07
2.6809e-07
2.71348e-07
2.74735e-07
2.78255e-07
2.81911e-07
2.85709e-07
2.89652e-07
2.93745e-07
2.97993e-07
3.02399e-07
3.06969e-07
3.11707e-07
3.16617e-07
3.21704e-07
3.26973e-07
3.32427e-07
3.38072e-07
3.43912e-07
3.4995e-07
3.56192e-07
3.62641e-07
3.69301e-07
3.76176e-07
3.8327e-07
3.90585e-07
3.98125e-07
4.05893e-07
4.13891e-07
4.22122e-07
4.30586e-07
4.39286e-07
4.48222e-07
4.57394e-07
4.66803e-07
4.76447e-07
4.86325e-07
4.96436e-07
5.06774e-07
5.17338e-07
5.28123e-07
5.39122e-07
5.50329e-07
5.61738e-07
5.73338e-07
5.8512e-07
5.97073e-07
6.09185e-07
6.21443e-07
6.3383e-07
6.46332e-07
6.58929e-07
6.71603e-07
6.84334e-07
6.97098e-07
7.09872e-07
7.2263e-07
7.35347e-07
7.47993e-07
7.60538e-07
7.72952e-07
7.85202e-07
7.97253e-07
8.09071e-07
8.20618e-07
8.31858e-07
8.42752e-07
8.53261e-07
8.63344e-07
8.72961e-07
8.8207e-07
8.90631e-07
8.98601e-07
9.0594e-07
9.12606e-07
9.18557e-07
9.23755e-07
9.28159e-07
9.3173e-07
9.34431e-07
9.36225e-07
9.37065e-07
9.36944e-07
9.35814e-07
9.33647e-07
9.30414e-07
9.26089e-07
9.20648e-07
9.14069e-07
9.06331e-07
8.97418e-07
8.87315e-07
8.76009e-07
8.6349e-07
8.49752e-07
8.34791e-07
8.18605e-07
8.01197e-07
7.82572e-07
7.62739e-07
7.41711e-07
7.19505e-07
6.9614e-07
6.71644e-07
6.46044e-07
6.19377e-07
5.91684e-07
5.63011e-07
5.33411e-07
5.02945e-07
4.71681e-07
4.39696e-07
4.07075e-07
3.73915e-07
3.40322e-07
3.06414e-07
2.72323e-07
2.38195e-07
2.04189e-07
1.70481e-07
1.37262e-07
1.04741e-07
7.31419e-08
4.27028e-08
1.36757e-08
)
;

boundaryField
{
    fixedWall
    {
        type            zeroGradient;
    }
    outlet
    {
        type            inletOutlet;
        inletValue      uniform 0;
        value           uniform 0;
    }
    defaultFaces
    {
        type            empty;
    }
}


// ************************************************************************* //
