/*--------------------------------*- C++ -*----------------------------------*\
| =========                 |                                                 |
| \\      /  F ield         | OpenFOAM: The Open Source CFD Toolbox           |
|  \\    /   O peration     | Version:  2406                                  |
|   \\  /    A nd           | Website:  www.openfoam.com                      |
|    \\/     M anipulation  |                                                 |
\*---------------------------------------------------------------------------*/
FoamFile
{
    version     2.0;
    format      ascii;
    arch        "LSB;label=32;scalar=64";
    class       surfaceScalarField;
    location    "14.3";
    object      phi;
}
// * * * * * * * * * * * * * * * * * * * * * * * * * * * * * * * * * * * * * //

dimensions      [1 0 -1 0 0 0 0];

oriented        oriented;

internalField   nonuniform List<scalar> 
999
(
-1.07001e-08
-3.65486e-08
-7.25412e-08
-1.15474e-07
-1.63193e-07
-2.14235e-07
-2.67553e-07
-3.22405e-07
-3.78242e-07
-4.34662e-07
-4.91366e-07
-5.48119e-07
-6.04752e-07
-6.61134e-07
-7.17156e-07
-7.72745e-07
-8.27839e-07
-8.82393e-07
-9.36377e-07
-9.89765e-07
-1.04253e-06
-1.09467e-06
-1.14616e-06
-1.19702e-06
-1.24722e-06
-1.29678e-06
-1.34569e-06
-1.39395e-06
-1.44157e-06
-1.48856e-06
-1.53491e-06
-1.58064e-06
-1.62574e-06
-1.67023e-06
-1.71411e-06
-1.75738e-06
-1.80006e-06
-1.84215e-06
-1.88366e-06
-1.9246e-06
-1.96496e-06
-2.00476e-06
-2.044e-06
-2.0827e-06
-2.12085e-06
-2.15846e-06
-2.19554e-06
-2.23209e-06
-2.26813e-06
-2.30365e-06
-2.33866e-06
-2.37316e-06
-2.40718e-06
-2.4407e-06
-2.47373e-06
-2.50628e-06
-2.53835e-06
-2.56995e-06
-2.60109e-06
-2.63176e-06
-2.66198e-06
-2.69174e-06
-2.72106e-06
-2.74993e-06
-2.77837e-06
-2.80637e-06
-2.83394e-06
-2.86109e-06
-2.88782e-06
-2.91413e-06
-2.94003e-06
-2.96552e-06
-2.99061e-06
-3.01529e-06
-3.03959e-06
-3.06349e-06
-3.087e-06
-3.11013e-06
-3.13288e-06
-3.15526e-06
-3.17726e-06
-3.1989e-06
-3.22017e-06
-3.24108e-06
-3.26163e-06
-3.28184e-06
-3.30169e-06
-3.3212e-06
-3.34036e-06
-3.3592e-06
-3.37769e-06
-3.39586e-06
-3.4137e-06
-3.43122e-06
-3.44842e-06
-3.4653e-06
-3.48188e-06
-3.49814e-06
-3.5141e-06
-3.52976e-06
-3.54512e-06
-3.56019e-06
-3.57497e-06
-3.58947e-06
-3.60368e-06
-3.61761e-06
-3.63127e-06
-3.64466e-06
-3.65777e-06
-3.67062e-06
-3.68321e-06
-3.69555e-06
-3.70762e-06
-3.71945e-06
-3.73103e-06
-3.74237e-06
-3.75347e-06
-3.76433e-06
-3.77495e-06
-3.78535e-06
-3.79552e-06
-3.80546e-06
-3.81519e-06
-3.8247e-06
-3.834e-06
-3.84309e-06
-3.85197e-06
-3.86064e-06
-3.86912e-06
-3.8774e-06
-3.88549e-06
-3.89338e-06
-3.90109e-06
-3.90862e-06
-3.91596e-06
-3.92313e-06
-3.93012e-06
-3.93695e-06
-3.9436e-06
-3.95009e-06
-3.95641e-06
-3.96258e-06
-3.96859e-06
-3.97445e-06
-3.98016e-06
-3.98572e-06
-3.99113e-06
-3.9964e-06
-4.00154e-06
-4.00654e-06
-4.0114e-06
-4.01614e-06
-4.02074e-06
-4.02522e-06
-4.02958e-06
-4.03382e-06
-4.03794e-06
-4.04194e-06
-4.04584e-06
-4.04962e-06
-4.05329e-06
-4.05686e-06
-4.06033e-06
-4.06369e-06
-4.06695e-06
-4.07014e-06
-4.07322e-06
-4.07621e-06
-4.07912e-06
-4.08193e-06
-4.08466e-06
-4.0873e-06
-4.08987e-06
-4.09235e-06
-4.09476e-06
-4.0971e-06
-4.09936e-06
-4.10156e-06
-4.10368e-06
-4.10574e-06
-4.10773e-06
-4.10966e-06
-4.11153e-06
-4.11333e-06
-4.11507e-06
-4.11676e-06
-4.11838e-06
-4.11994e-06
-4.12145e-06
-4.12292e-06
-4.12433e-06
-4.12569e-06
-4.127e-06
-4.12827e-06
-4.1295e-06
-4.13069e-06
-4.13184e-06
-4.13295e-06
-4.13402e-06
-4.13505e-06
-4.13605e-06
-4.13702e-06
-4.13795e-06
-4.13885e-06
-4.13971e-06
-4.14055e-06
-4.14135e-06
-4.14211e-06
-4.14286e-06
-4.14357e-06
-4.14426e-06
-4.14492e-06
-4.14556e-06
-4.14617e-06
-4.14675e-06
-4.14732e-06
-4.14786e-06
-4.14838e-06
-4.14888e-06
-4.14936e-06
-4.14982e-06
-4.15027e-06
-4.1507e-06
-4.1511e-06
-4.1515e-06
-4.15187e-06
-4.15224e-06
-4.15258e-06
-4.15292e-06
-4.15324e-06
-4.15355e-06
-4.15384e-06
-4.15412e-06
-4.15439e-06
-4.15465e-06
-4.1549e-06
-4.15513e-06
-4.15536e-06
-4.15557e-06
-4.15578e-06
-4.15598e-06
-4.15617e-06
-4.15635e-06
-4.15652e-06
-4.15668e-06
-4.15684e-06
-4.15699e-06
-4.15714e-06
-4.15727e-06
-4.1574e-06
-4.15753e-06
-4.15765e-06
-4.15776e-06
-4.15787e-06
-4.15797e-06
-4.15807e-06
-4.15816e-06
-4.15825e-06
-4.15834e-06
-4.15842e-06
-4.15849e-06
-4.15857e-06
-4.15863e-06
-4.1587e-06
-4.15876e-06
-4.15882e-06
-4.15888e-06
-4.15893e-06
-4.15898e-06
-4.15903e-06
-4.15907e-06
-4.15912e-06
-4.15916e-06
-4.1592e-06
-4.15923e-06
-4.15927e-06
-4.1593e-06
-4.15933e-06
-4.15936e-06
-4.15938e-06
-4.15941e-06
-4.15943e-06
-4.15946e-06
-4.15948e-06
-4.1595e-06
-4.15951e-06
-4.15953e-06
-4.15955e-06
-4.15956e-06
-4.15958e-06
-4.15959e-06
-4.1596e-06
-4.15961e-06
-4.15962e-06
-4.15963e-06
-4.15964e-06
-4.15965e-06
-4.15966e-06
-4.15966e-06
-4.15967e-06
-4.15968e-06
-4.15968e-06
-4.15969e-06
-4.15969e-06
-4.1597e-06
-4.1597e-06
-4.1597e-06
-4.15971e-06
-4.15971e-06
-4.15971e-06
-4.15971e-06
-4.15971e-06
-4.15971e-06
-4.15972e-06
-4.15972e-06
-4.15972e-06
-4.15972e-06
-4.15972e-06
-4.15972e-06
-4.15972e-06
-4.15972e-06
-4.15972e-06
-4.15972e-06
-4.15972e-06
-4.15971e-06
-4.15971e-06
-4.15971e-06
-4.15971e-06
-4.15971e-06
-4.15971e-06
-4.15971e-06
-4.15971e-06
-4.15971e-06
-4.1597e-06
-4.1597e-06
-4.1597e-06
-4.1597e-06
-4.1597e-06
-4.1597e-06
-4.1597e-06
-4.15969e-06
-4.15969e-06
-4.15969e-06
-4.15969e-06
-4.15969e-06
-4.15969e-06
-4.15969e-06
-4.15969e-06
-4.15968e-06
-4.15968e-06
-4.15968e-06
-4.15968e-06
-4.15968e-06
-4.15968e-06
-4.15968e-06
-4.15968e-06
-4.15968e-06
-4.15967e-06
-4.15967e-06
-4.15967e-06
-4.15967e-06
-4.15967e-06
-4.15967e-06
-4.15967e-06
-4.15967e-06
-4.15967e-06
-4.15967e-06
-4.15967e-06
-4.15967e-06
-4.15967e-06
-4.15967e-06
-4.15967e-06
-4.15966e-06
-4.15966e-06
-4.15966e-06
-4.15966e-06
-4.15966e-06
-4.15966e-06
-4.15966e-06
-4.15966e-06
-4.15966e-06
-4.15966e-06
-4.15966e-06
-4.15966e-06
-4.15966e-06
-4.15966e-06
-4.15966e-06
-4.15966e-06
-4.15966e-06
-4.15966e-06
-4.15966e-06
-4.15966e-06
-4.15966e-06
-4.15966e-06
-4.15966e-06
-4.15966e-06
-4.15966e-06
-4.15966e-06
-4.15966e-06
-4.15966e-06
-4.15966e-06
-4.15966e-06
-4.15966e-06
-4.15966e-06
-4.15966e-06
-4.15967e-06
-4.15967e-06
-4.15967e-06
-4.15967e-06
-4.15967e-06
-4.15967e-06
-4.15967e-06
-4.15967e-06
-4.15967e-06
-4.15967e-06
-4.15967e-06
-4.15967e-06
-4.15967e-06
-4.15967e-06
-4.15967e-06
-4.15967e-06
-4.15967e-06
-4.15967e-06
-4.15967e-06
-4.15967e-06
-4.15967e-06
-4.15967e-06
-4.15967e-06
-4.15967e-06
-4.15967e-06
-4.15967e-06
-4.15967e-06
-4.15967e-06
-4.15967e-06
-4.15967e-06
-4.15967e-06
-4.15967e-06
-4.15967e-06
-4.15967e-06
-4.15967e-06
-4.15967e-06
-4.15967e-06
-4.15967e-06
-4.15967e-06
-4.15968e-06
-4.15968e-06
-4.15968e-06
-4.15968e-06
-4.15968e-06
-4.15968e-06
-4.15968e-06
-4.15968e-06
-4.15968e-06
-4.15968e-06
-4.15968e-06
-4.15968e-06
-4.15968e-06
-4.15968e-06
-4.15968e-06
-4.15968e-06
-4.15968e-06
-4.15968e-06
-4.15968e-06
-4.15968e-06
-4.15968e-06
-4.15968e-06
-4.15968e-06
-4.15968e-06
-4.15968e-06
-4.15968e-06
-4.15968e-06
-4.15968e-06
-4.15968e-06
-4.15968e-06
-4.15968e-06
-4.15968e-06
-4.15968e-06
-4.15968e-06
-4.15968e-06
-4.15968e-06
-4.15968e-06
-4.15968e-06
-4.15968e-06
-4.15968e-06
-4.15967e-06
-4.15967e-06
-4.15967e-06
-4.15968e-06
-4.15967e-06
-4.15967e-06
-4.15967e-06
-4.15967e-06
-4.15967e-06
-4.15967e-06
-4.15967e-06
-4.15967e-06
-4.15967e-06
-4.15967e-06
-4.15967e-06
-4.15967e-06
-4.15967e-06
-4.15967e-06
-4.15967e-06
-4.15967e-06
-4.15967e-06
-4.15967e-06
-4.15967e-06
-4.15967e-06
-4.15967e-06
-4.15967e-06
-4.15967e-06
-4.15967e-06
-4.15967e-06
-4.15967e-06
-4.15967e-06
-4.15967e-06
-4.15967e-06
-4.15967e-06
-4.15967e-06
-4.15966e-06
-4.15966e-06
-4.15966e-06
-4.15966e-06
-4.15966e-06
-4.15966e-06
-4.15966e-06
-4.15966e-06
-4.15966e-06
-4.15966e-06
-4.15966e-06
-4.15966e-06
-4.15966e-06
-4.15966e-06
-4.15966e-06
-4.15966e-06
-4.15966e-06
-4.15965e-06
-4.15965e-06
-4.15965e-06
-4.15965e-06
-4.15965e-06
-4.15965e-06
-4.15965e-06
-4.15965e-06
-4.15965e-06
-4.15965e-06
-4.15965e-06
-4.15965e-06
-4.15965e-06
-4.15965e-06
-4.15965e-06
-4.15965e-06
-4.15965e-06
-4.15965e-06
-4.15965e-06
-4.15965e-06
-4.15965e-06
-4.15965e-06
-4.15965e-06
-4.15965e-06
-4.15965e-06
-4.15965e-06
-4.15965e-06
-4.15965e-06
-4.15964e-06
-4.15965e-06
-4.15965e-06
-4.15965e-06
-4.15965e-06
-4.15964e-06
-4.15964e-06
-4.15964e-06
-4.15964e-06
-4.15964e-06
-4.15964e-06
-4.15964e-06
-4.15964e-06
-4.15964e-06
-4.15964e-06
-4.15964e-06
-4.15964e-06
-4.15964e-06
-4.15964e-06
-4.15964e-06
-4.15964e-06
-4.15964e-06
-4.15964e-06
-4.15964e-06
-4.15964e-06
-4.15964e-06
-4.15964e-06
-4.15964e-06
-4.15964e-06
-4.15964e-06
-4.15964e-06
-4.15964e-06
-4.15964e-06
-4.15964e-06
-4.15964e-06
-4.15964e-06
-4.15964e-06
-4.15964e-06
-4.15964e-06
-4.15964e-06
-4.15964e-06
-4.15964e-06
-4.15964e-06
-4.15964e-06
-4.15964e-06
-4.15964e-06
-4.15964e-06
-4.15964e-06
-4.15964e-06
-4.15964e-06
-4.15964e-06
-4.15964e-06
-4.15964e-06
-4.15964e-06
-4.15964e-06
-4.15964e-06
-4.15964e-06
-4.15964e-06
-4.15964e-06
-4.15964e-06
-4.15964e-06
-4.15964e-06
-4.15964e-06
-4.15964e-06
-4.15964e-06
-4.15964e-06
-4.15964e-06
-4.15964e-06
-4.15964e-06
-4.15964e-06
-4.15964e-06
-4.15964e-06
-4.15964e-06
-4.15964e-06
-4.15964e-06
-4.15964e-06
-4.15964e-06
-4.15964e-06
-4.15964e-06
-4.15964e-06
-4.15964e-06
-4.15964e-06
-4.15964e-06
-4.15964e-06
-4.15963e-06
-4.15963e-06
-4.15963e-06
-4.15963e-06
-4.15963e-06
-4.15963e-06
-4.15963e-06
-4.15963e-06
-4.15963e-06
-4.15963e-06
-4.15963e-06
-4.15963e-06
-4.15963e-06
-4.15963e-06
-4.15963e-06
-4.15963e-06
-4.15963e-06
-4.15963e-06
-4.15963e-06
-4.15963e-06
-4.15963e-06
-4.15963e-06
-4.15963e-06
-4.15963e-06
-4.15963e-06
-4.15963e-06
-4.15963e-06
-4.15963e-06
-4.15963e-06
-4.15963e-06
-4.15963e-06
-4.15963e-06
-4.15963e-06
-4.15963e-06
-4.15963e-06
-4.15963e-06
-4.15963e-06
-4.15963e-06
-4.15963e-06
-4.15963e-06
-4.15963e-06
-4.15964e-06
-4.15964e-06
-4.15964e-06
-4.15964e-06
-4.15964e-06
-4.15964e-06
-4.15965e-06
-4.15965e-06
-4.15965e-06
-4.15965e-06
-4.15966e-06
-4.15966e-06
-4.15966e-06
-4.15967e-06
-4.15967e-06
-4.15968e-06
-4.15968e-06
-4.15969e-06
-4.15969e-06
-4.1597e-06
-4.15971e-06
-4.15971e-06
-4.15972e-06
-4.15973e-06
-4.15974e-06
-4.15975e-06
-4.15976e-06
-4.15977e-06
-4.15979e-06
-4.1598e-06
-4.15981e-06
-4.15983e-06
-4.15984e-06
-4.15986e-06
-4.15988e-06
-4.1599e-06
-4.15992e-06
-4.15994e-06
-4.15997e-06
-4.15999e-06
-4.16002e-06
-4.16005e-06
-4.16008e-06
-4.16012e-06
-4.16015e-06
-4.16019e-06
-4.16023e-06
-4.16027e-06
-4.16032e-06
-4.16037e-06
-4.16042e-06
-4.16048e-06
-4.16054e-06
-4.1606e-06
-4.16067e-06
-4.16074e-06
-4.16082e-06
-4.1609e-06
-4.16099e-06
-4.16108e-06
-4.16118e-06
-4.16128e-06
-4.1614e-06
-4.16151e-06
-4.16164e-06
-4.16177e-06
-4.16191e-06
-4.16206e-06
-4.16222e-06
-4.16239e-06
-4.16257e-06
-4.16276e-06
-4.16296e-06
-4.16317e-06
-4.1634e-06
-4.16363e-06
-4.16389e-06
-4.16415e-06
-4.16444e-06
-4.16474e-06
-4.16505e-06
-4.16539e-06
-4.16574e-06
-4.16612e-06
-4.16651e-06
-4.16693e-06
-4.16737e-06
-4.16784e-06
-4.16833e-06
-4.16885e-06
-4.16939e-06
-4.16997e-06
-4.17058e-06
-4.17122e-06
-4.17189e-06
-4.1726e-06
-4.17335e-06
-4.17414e-06
-4.17497e-06
-4.17584e-06
-4.17676e-06
-4.17772e-06
-4.17874e-06
-4.17981e-06
-4.18093e-06
-4.18211e-06
-4.18334e-06
-4.18464e-06
-4.18601e-06
-4.18744e-06
-4.18894e-06
-4.19051e-06
-4.19216e-06
-4.19389e-06
-4.1957e-06
-4.1976e-06
-4.19958e-06
-4.20166e-06
-4.20384e-06
-4.20612e-06
-4.2085e-06
-4.211e-06
-4.2136e-06
-4.21632e-06
-4.21917e-06
-4.22214e-06
-4.22524e-06
-4.22848e-06
-4.23186e-06
-4.23539e-06
-4.23907e-06
-4.24291e-06
-4.24691e-06
-4.25108e-06
-4.25542e-06
-4.25995e-06
-4.26466e-06
-4.26956e-06
-4.27467e-06
-4.27997e-06
-4.2855e-06
-4.29124e-06
-4.29721e-06
-4.30342e-06
-4.30986e-06
-4.31656e-06
-4.32351e-06
-4.33073e-06
-4.33822e-06
-4.34599e-06
-4.35405e-06
-4.36241e-06
-4.37108e-06
-4.38006e-06
-4.38936e-06
-4.399e-06
-4.40899e-06
-4.41932e-06
-4.43001e-06
-4.44108e-06
-4.45253e-06
-4.46437e-06
-4.47661e-06
-4.48926e-06
-4.50233e-06
-4.51584e-06
-4.52979e-06
-4.54419e-06
-4.55906e-06
-4.57441e-06
-4.59024e-06
-4.60657e-06
-4.62341e-06
-4.64077e-06
-4.65867e-06
-4.67711e-06
-4.69611e-06
-4.71568e-06
-4.73583e-06
-4.75657e-06
-4.77792e-06
-4.79989e-06
-4.82249e-06
-4.84573e-06
-4.86963e-06
-4.8942e-06
-4.91945e-06
-4.9454e-06
-4.97206e-06
-4.99944e-06
-5.02755e-06
-5.05642e-06
-5.08605e-06
-5.11645e-06
-5.14765e-06
-5.17964e-06
-5.21246e-06
-5.24611e-06
-5.2806e-06
-5.31596e-06
-5.35218e-06
-5.3893e-06
-5.42732e-06
-5.46626e-06
-5.50613e-06
-5.54695e-06
-5.58872e-06
-5.63148e-06
-5.67523e-06
-5.71998e-06
-5.76575e-06
-5.81256e-06
-5.86043e-06
-5.90936e-06
-5.95937e-06
-6.01049e-06
-6.06272e-06
-6.11608e-06
-6.17058e-06
-6.22625e-06
-6.2831e-06
-6.34115e-06
-6.40041e-06
-6.4609e-06
-6.52264e-06
-6.58564e-06
-6.64993e-06
-6.71551e-06
-6.78242e-06
-6.85066e-06
-6.92025e-06
-6.99122e-06
-7.06359e-06
-7.13736e-06
-7.21257e-06
-7.28924e-06
-7.36738e-06
-7.44701e-06
-7.52816e-06
-7.61085e-06
-7.6951e-06
-7.78094e-06
-7.86839e-06
-7.95746e-06
-8.0482e-06
-8.14062e-06
-8.23475e-06
-8.33062e-06
-8.42826e-06
-8.52769e-06
-8.62895e-06
-8.73206e-06
-8.83707e-06
-8.944e-06
-9.05289e-06
-9.16378e-06
-9.27671e-06
-9.39172e-06
-9.50886e-06
-9.62817e-06
-9.74971e-06
-9.87353e-06
-9.99969e-06
-1.01283e-05
-1.02593e-05
-1.03929e-05
-1.05291e-05
-1.06659e-05
-1.08054e-05
-1.09476e-05
-1.10926e-05
-1.12405e-05
-1.13912e-05
-1.15448e-05
-1.17014e-05
-1.1861e-05
-1.20236e-05
-1.21894e-05
-1.23582e-05
-1.25302e-05
-1.27054e-05
-1.28838e-05
-1.30654e-05
-1.32503e-05
-1.34385e-05
-1.36298e-05
-1.38243e-05
-1.40219e-05
-1.42226e-05
-1.44261e-05
-1.46324e-05
-1.48412e-05
-1.50522e-05
-1.5265e-05
-1.54793e-05
-1.56945e-05
-1.59099e-05
-1.61248e-05
-1.63382e-05
-1.6549e-05
-1.67558e-05
-1.6957e-05
-1.71508e-05
-1.7335e-05
-1.75069e-05
-1.76637e-05
-1.78018e-05
-1.79175e-05
-1.80063e-05
-1.80634e-05
)
;

boundaryField
{
    fixedWall
    {
        type            calculated;
        value           uniform 0;
    }
    outlet
    {
        type            calculated;
        value           uniform -1.80837e-05;
    }
    defaultFaces
    {
        type            empty;
    }
}


// ************************************************************************* //
