/*--------------------------------*- C++ -*----------------------------------*\
| =========                 |                                                 |
| \\      /  F ield         | OpenFOAM: The Open Source CFD Toolbox           |
|  \\    /   O peration     | Version:  2406                                  |
|   \\  /    A nd           | Website:  www.openfoam.com                      |
|    \\/     M anipulation  |                                                 |
\*---------------------------------------------------------------------------*/
FoamFile
{
    version     2.0;
    format      ascii;
    arch        "LSB;label=32;scalar=64";
    class       volScalarField;
    location    "0.3";
    object      Qdot;
}
// * * * * * * * * * * * * * * * * * * * * * * * * * * * * * * * * * * * * * //

dimensions      [1 -1 -3 0 0 0 0];

internalField   nonuniform List<scalar> 
1000
(
6.39359e-08
0.000277578
0.0110547
0.100043
0.448502
1.34446
3.11373
6.04143
10.3319
16.1203
23.5181
32.6623
43.7017
56.473
71.8113
90.5583
112.514
138.199
168.157
202.982
243.343
290.063
344.134
406.825
479.78
565.146
665.755
785.368
929.035
1103.64
1318.8
1588.23
1932.25
2381.88
2986.38
3826.95
5042.88
6882.31
9804.35
14690.6
23304.2
39367.6
71456.1
142186
323283
854057
2.56635e+06
9.18516e+06
1.78879e+07
111161
343.529
2.65743
0.085703
0.00996607
0.00285419
0.00142466
0.000978033
0.000800359
0.000720153
0.000681343
0.000661978
0.000652299
0.000647293
0.000644782
0.00064357
0.000642875
0.000642586
0.000642414
0.000642387
0.000642346
0.000642325
0.000642316
0.000642311
0.000642309
0.000642308
0.000642307
0.000642307
0.000642307
0.000642249
0.000642248
0.000642248
0.000642306
0.000642306
0.000642248
0.000642248
0.000642306
0.000642248
0.000642306
0.000642306
0.000642306
0.000642306
0.000642248
0.000642306
0.000642306
0.000642248
0.000642248
0.000642306
0.000642306
0.000642306
0.000642306
0.000642306
0.000642306
0.000642248
0.000642306
0.000642306
0.000642306
0.000642248
0.000642306
0.000642306
0.000642248
0.000642248
0.000642306
0.000642248
0.000642306
0.000642248
0.000642248
0.000642248
0.000642248
0.000642306
0.000642306
0.000642248
0.000642306
0.000642306
0.000642248
0.000642306
0.000642306
0.000642248
0.000642306
0.000642306
0.000642307
0.000642249
0.000642307
0.000642307
0.000642249
0.000642249
0.000642249
0.000642249
0.000642307
0.000642249
0.000642307
0.000642307
0.000642307
0.000642307
0.00064225
0.000642308
0.000642308
0.000642308
0.000642308
0.000642308
0.00064225
0.000642308
0.00064225
0.000642308
0.00064225
0.00064225
0.000642309
0.000642309
0.000642309
0.000642309
0.000642309
0.000642251
0.000642251
0.000642309
0.000642251
0.000642309
0.000642252
0.000642252
0.00064231
0.000642252
0.00064231
0.00064231
0.00064231
0.00064231
0.00064231
0.000642252
0.00064231
0.000642252
0.000642311
0.000642311
0.000642253
0.000642311
0.000642311
0.000642253
0.000642253
0.000642311
0.000642253
0.000642311
0.000642311
0.000642311
0.000642311
0.000642254
0.000642312
0.000642312
0.000642254
0.000642312
0.000642312
0.000642254
0.000642312
0.000642254
0.000642312
0.000642254
0.000642312
0.000642312
0.000642312
0.000642312
0.000642313
0.000642313
0.000642313
0.000642313
0.000642313
0.000642313
0.000642313
0.000642313
0.000642313
0.000642255
0.000642313
0.000642255
0.000642313
0.000642313
0.000642255
0.000642255
0.000642255
0.000642314
0.000642314
0.000642256
0.000642314
0.000642256
0.000642314
0.000642256
0.000642314
0.000642256
0.000642314
0.000642314
0.000642256
0.000642256
0.000642314
0.000642314
0.000642314
0.000642314
0.000642314
0.000642314
0.000642314
0.000642257
0.000642257
0.000642315
0.000642257
0.000642315
0.000642315
0.000642315
0.000642315
0.000642315
0.000642257
0.000642315
0.000642315
0.000642315
0.000642315
0.000642315
0.000642315
0.000642315
0.000642257
0.000642257
0.000642315
0.000642315
0.000642316
0.000642316
0.000642316
0.000642316
0.000642258
0.000642258
0.000642316
0.000642258
0.000642316
0.000642258
0.000642316
0.000642316
0.000642316
0.000642316
0.000642316
0.000642316
0.000642316
0.000642316
0.000642258
0.000642316
0.000642316
0.000642316
0.000642258
0.000642317
0.000642259
0.000642317
0.000642259
0.000642317
0.000642317
0.000642259
0.000642259
0.000642317
0.000642317
0.000642259
0.000642317
0.000642317
0.000642259
0.000642317
0.000642259
0.00064226
0.000642318
0.000642318
0.000642318
0.000642318
0.000642318
0.000642318
0.000642318
0.00064226
0.000642318
0.000642318
0.00064226
0.000642318
0.000642318
0.000642318
0.000642261
0.000642319
0.000642319
0.000642319
0.000642319
0.000642319
0.000642319
0.000642319
0.000642261
0.000642319
0.000642319
0.000642261
0.00064232
0.00064232
0.00064232
0.00064232
0.00064232
0.000642262
0.000642262
0.000642262
0.00064232
0.000642262
0.000642321
0.000642321
0.000642321
0.000642263
0.000642263
0.000642263
0.000642321
0.000642321
0.000642263
0.000642322
0.000642322
0.000642322
0.000642264
0.000642322
0.000642264
0.000642322
0.000642264
0.000642322
0.000642323
0.000642323
0.000642323
0.000642323
0.000642323
0.000642323
0.000642265
0.000642323
0.000642324
0.000642266
0.000642324
0.000642324
0.000642266
0.000642266
0.000642324
0.000642325
0.000642267
0.000642325
0.000642325
0.000642325
0.000642325
0.000642267
0.000642268
0.000642268
0.000642326
0.000642326
0.000642326
0.000642326
0.000642326
0.000642269
0.000642327
0.000642327
0.000642327
0.000642327
0.000642327
0.000642327
0.000642328
0.00064227
0.000642328
0.000642328
0.00064227
0.00064227
0.000642329
0.000642329
0.000642329
0.000642329
0.000642329
0.00064233
0.000642272
0.00064233
0.00064233
0.00064233
0.000642272
0.000642273
0.000642331
0.000642331
0.000642273
0.000642331
0.000642273
0.000642332
0.000642332
0.000642332
0.000642274
0.000642274
0.000642275
0.000642333
0.000642275
0.000642333
0.000642333
0.000642276
0.000642276
0.000642334
0.000642276
0.000642276
0.000642334
0.000642277
0.000642335
0.000642335
0.000642335
0.000642278
0.000642336
0.000642336
0.000642336
0.000642278
0.000642337
0.000642337
0.000642337
0.000642337
0.000642337
0.00064228
0.000642338
0.000642338
0.000642338
0.00064228
0.000642339
0.000642339
0.000642339
0.000642281
0.000642339
0.00064234
0.000642282
0.00064234
0.000642282
0.000642341
0.000642341
0.000642283
0.000642283
0.000642341
0.000642342
0.000642284
0.000642342
0.000642342
0.000642343
0.000642343
0.000642285
0.000642343
0.000642286
0.000642344
0.000642344
0.000642344
0.000642286
0.000642345
0.000642345
0.000642287
0.000642287
0.000642346
0.000642346
0.000642346
0.000642346
0.000642346
0.000642289
0.000642347
0.000642347
0.000642289
0.000642348
0.000642348
0.00064229
0.000642348
0.000642349
0.000642349
0.000642349
0.000642291
0.00064235
0.00064235
0.00064235
0.00064235
0.000642351
0.000642351
0.000642293
0.000642351
0.000642294
0.000642352
0.000642352
0.000642352
0.000642295
0.000642353
0.000642295
0.000642295
0.000642354
0.000642354
0.000642296
0.000642354
0.000642354
0.000642355
0.000642355
0.000642297
0.000642356
0.000642356
0.000642356
0.000642298
0.000642357
0.000642357
0.000642299
0.000642357
0.000642358
0.0006423
0.000642358
0.0006423
0.000642359
0.000642359
0.000642301
0.000642302
0.000642302
0.00064236
0.00064236
0.000642361
0.000642361
0.000642303
0.000642361
0.000642362
0.000642362
0.000642362
0.000642304
0.000642363
0.000642363
0.000642363
0.000642363
0.000642364
0.000642364
0.000642364
0.000642307
0.000642365
0.000642365
0.000642365
0.000642308
0.000642366
0.000642308
0.000642366
0.000642309
0.000642309
0.000642309
0.000642368
0.000642368
0.000642368
0.000642368
0.000642311
0.000642369
0.000642311
0.00064237
0.00064237
0.00064237
0.000642312
0.000642313
0.000642371
0.000642371
0.000642372
0.000642314
0.000642314
0.000642372
0.000642315
0.000642315
0.000642373
0.000642374
0.000642316
0.000642374
0.000642374
0.000642375
0.000642375
0.000642375
0.000642376
0.000642376
0.000642376
0.000642376
0.000642377
0.000642377
0.000642377
0.000642378
0.000642378
0.000642378
0.000642379
0.000642379
0.000642379
0.000642321
0.000642322
0.00064238
0.00064238
0.000642381
0.000642381
0.000642381
0.000642382
0.000642382
0.000642324
0.000642382
0.000642383
0.000642383
0.000642383
0.000642384
0.000642326
0.000642326
0.000642385
0.000642327
0.000642327
0.000642386
0.000642386
0.000642386
0.000642386
0.000642329
0.000642387
0.000642387
0.00064233
0.00064233
0.000642388
0.000642389
0.000642389
0.000642331
0.000642332
0.00064239
0.00064239
0.000642332
0.000642391
0.000642391
0.000642391
0.000642334
0.000642392
0.000642392
0.000642393
0.000642393
0.000642335
0.000642394
0.000642336
0.000642394
0.000642337
0.000642395
0.000642395
0.000642396
0.000642396
0.000642396
0.000642339
0.000642339
0.000642339
0.000642398
0.00064234
0.00064234
0.000642399
0.000642399
0.000642399
0.0006424
0.0006424
0.0006424
0.000642343
0.000642343
0.000642401
0.000642402
0.000642344
0.000642344
0.000642345
0.000642403
0.000642403
0.000642404
0.000642404
0.000642346
0.000642405
0.000642405
0.000642347
0.000642406
0.000642406
0.000642406
0.000642349
0.000642407
0.000642408
0.000642408
0.000642408
0.000642409
0.000642351
0.000642409
0.000642352
0.000642352
0.000642352
0.000642411
0.000642411
0.000642411
0.000642412
0.000642412
0.000642413
0.000642413
0.000642355
0.000642414
0.000642356
0.000642356
0.000642415
0.000642415
0.000642357
0.000642416
0.000642358
0.000642416
0.000642359
0.000642417
0.000642418
0.000642418
0.000642418
0.000642419
0.000642361
0.00064242
0.000642362
0.00064242
0.000642421
0.000642421
0.000642363
0.000642422
0.000642422
0.000642423
0.000642423
0.000642423
0.000642424
0.000642366
0.000642366
0.000642425
0.000642425
0.000642426
0.000642426
0.000642426
0.000642427
0.000642427
0.000642428
0.000642428
0.000642428
0.000642371
0.000642371
0.000642372
0.00064243
0.00064243
0.000642373
0.000642431
0.000642431
0.000642432
0.000642432
0.000642433
0.000642433
0.000642433
0.000642376
0.000642434
0.000642377
0.000642377
0.000642377
0.000642436
0.000642378
0.000642437
0.000642437
0.000642438
0.000642438
0.000642438
0.000642439
0.000642439
0.000642382
0.00064244
0.00064244
0.000642441
0.000642383
0.000642384
0.000642384
0.000642442
0.000642385
0.000642385
0.000642386
0.000642444
0.000642387
0.000642387
0.000642445
0.000642446
0.000642388
0.000642447
0.000642389
0.000642448
0.00064239
0.000642448
0.000642449
0.000642449
0.000642392
0.000642392
0.000642451
0.000642451
0.000642451
0.000642452
0.000642394
0.000642453
0.000642453
0.000642454
0.000642454
0.000642455
0.000642455
0.000642397
0.000642456
0.000642398
0.000642457
0.000642457
0.000642458
0.0006424
0.000642401
0.000642459
0.000642459
0.00064246
0.00064246
0.000642461
0.000642461
0.000642462
0.000642462
0.000642462
0.000642463
0.000642463
0.000642464
0.000642406
0.000642465
0.000642407
0.000642408
0.000642408
0.000642467
0.000642467
0.000642468
0.00064241
0.00064241
0.000642411
0.000642469
0.000642412
0.00064247
0.000642471
0.000642471
0.000642472
0.000642414
0.000642415
0.000642473
0.000642474
0.000642474
0.000642474
0.000642417
0.000642417
0.000642476
0.000642418
0.000642477
0.000642477
0.000642478
0.000642478
0.000642479
0.000642479
0.00064248
0.00064248
0.000642423
0.000642423
0.000642482
0.000642482
0.000642483
0.000642425
0.000642425
0.000642484
0.000642426
0.000642427
0.000642485
0.000642428
0.000642486
0.000642429
0.000642487
0.00064243
0.000642488
0.000642431
0.000642431
0.00064249
0.00064249
0.000642491
0.000642491
0.000642492
0.000642434
0.000642493
0.000642435
0.000642494
0.000642436
0.000642495
0.000642437
0.000642438
0.000642438
0.000642497
0.000642439
0.000642498
0.000642498
0.000642499
0.000642499
0.0006425
0.0006425
0.0006425
0.000642443
0.000642444
0.000642444
0.000642503
0.000642503
0.000642504
0.000642446
0.000642505
0.000642505
0.000642447
0.000642506
0.000642449
0.000642449
0.000642507
0.000642508
0.000642508
0.000642509
0.000642509
0.000642452
0.000642453
0.000642511
0.000642512
0.000642512
0.000642512
0.000642455
0.000642513
0.000642514
0.000642515
0.000642457
0.000642516
0.000642516
0.000642517
0.000642459
0.00064246
0.000642518
0.000642519
0.000642519
0.00064252
0.00064252
0.000642463
0.000642521
0.000642521
0.000642522
0.000642522
0.000642523
0.000642466
0.000642524
0.000642525
0.000642525
0.000642525
0.000642526
0.000642469
0.000642469
0.000642469
0.000642528
0.000642529
0.000642471
0.00064253
0.00064253
0.000642531
0.000642473
0.000642474
0.000642532
0.000642533
0.000642533
0.000642534
0.000642534
0.000642535
0.000642535
0.000642536
0.000642536
0.000642537
0.000642479
0.000642538
0.000642538
0.000642539
0.000642539
0.00064254
0.000642482
0.000642541
0.000642542
0.000642543
0.000642544
0.000642546
0.000642544
0.000642458
)
;

boundaryField
{
    fixedWall
    {
        type            calculated;
        value           uniform 0;
    }
    outlet
    {
        type            calculated;
        value           uniform 0;
    }
    defaultFaces
    {
        type            empty;
    }
}


// ************************************************************************* //
