/*--------------------------------*- C++ -*----------------------------------*\
| =========                 |                                                 |
| \\      /  F ield         | OpenFOAM: The Open Source CFD Toolbox           |
|  \\    /   O peration     | Version:  2406                                  |
|   \\  /    A nd           | Website:  www.openfoam.com                      |
|    \\/     M anipulation  |                                                 |
\*---------------------------------------------------------------------------*/
FoamFile
{
    version     2.0;
    format      ascii;
    arch        "LSB;label=32;scalar=64";
    class       volScalarField;
    location    "4.5";
    object      CO2;
}
// * * * * * * * * * * * * * * * * * * * * * * * * * * * * * * * * * * * * * //

dimensions      [0 0 0 0 0 0 0];

internalField   nonuniform List<scalar> 
1000
(
0.0709258
0.0709258
0.0709258
0.0709258
0.0709258
0.0709258
0.0709258
0.0709259
0.0709259
0.0709259
0.0709259
0.0709259
0.0709259
0.0709259
0.0709259
0.070926
0.070926
0.070926
0.070926
0.070926
0.070926
0.070926
0.0709261
0.0709261
0.0709261
0.0709261
0.0709261
0.0709261
0.0709261
0.0709262
0.0709262
0.0709262
0.0709262
0.0709262
0.0709262
0.0709262
0.0709263
0.0709263
0.0709263
0.0709263
0.0709263
0.0709263
0.0709263
0.0709263
0.0709264
0.0709264
0.0709264
0.0709264
0.0709264
0.0709264
0.0709264
0.0709264
0.0709264
0.0709264
0.0709264
0.0709264
0.0709264
0.0709264
0.0709265
0.0709265
0.0709265
0.0709265
0.0709265
0.0709265
0.0709265
0.0709265
0.0709265
0.0709265
0.0709265
0.0709265
0.0709265
0.0709265
0.0709265
0.0709265
0.0709265
0.0709265
0.0709265
0.0709265
0.0709265
0.0709265
0.0709265
0.0709265
0.0709265
0.0709265
0.0709265
0.0709265
0.0709265
0.0709265
0.0709265
0.0709265
0.0709265
0.0709265
0.0709265
0.0709265
0.0709265
0.0709265
0.0709265
0.0709265
0.0709265
0.0709265
0.0709265
0.0709265
0.0709265
0.0709265
0.0709265
0.0709265
0.0709265
0.0709265
0.0709265
0.0709265
0.0709265
0.0709265
0.0709265
0.0709265
0.0709265
0.0709265
0.0709265
0.0709265
0.0709265
0.0709265
0.0709265
0.0709265
0.0709265
0.0709265
0.0709265
0.0709265
0.0709265
0.0709265
0.0709265
0.0709265
0.0709265
0.0709265
0.0709265
0.0709265
0.0709265
0.0709265
0.0709265
0.0709265
0.0709265
0.0709265
0.0709265
0.0709265
0.0709265
0.0709265
0.0709265
0.0709265
0.0709265
0.0709265
0.0709265
0.0709265
0.0709265
0.0709265
0.0709265
0.0709265
0.0709265
0.0709265
0.0709265
0.0709265
0.0709265
0.0709265
0.0709265
0.0709265
0.0709265
0.0709265
0.0709265
0.0709265
0.0709265
0.0709265
0.0709265
0.0709265
0.0709265
0.0709265
0.0709265
0.0709265
0.0709265
0.0709265
0.0709265
0.0709265
0.0709265
0.0709265
0.0709265
0.0709265
0.0709265
0.0709265
0.0709265
0.0709265
0.0709265
0.0709265
0.0709265
0.0709265
0.0709265
0.0709265
0.0709265
0.0709265
0.0709265
0.0709265
0.0709265
0.0709265
0.0709265
0.0709265
0.0709265
0.0709265
0.0709265
0.0709264
0.0709264
0.0709264
0.0709264
0.0709264
0.0709264
0.0709264
0.0709264
0.0709264
0.0709264
0.0709264
0.0709264
0.0709264
0.0709264
0.0709264
0.0709264
0.0709264
0.0709264
0.0709264
0.0709264
0.0709264
0.0709264
0.0709264
0.0709264
0.0709264
0.0709264
0.0709264
0.0709264
0.0709264
0.0709264
0.0709264
0.0709264
0.0709264
0.0709264
0.0709264
0.0709264
0.0709264
0.0709264
0.0709264
0.0709264
0.0709264
0.0709264
0.0709264
0.0709264
0.0709264
0.0709264
0.0709264
0.0709264
0.0709264
0.0709264
0.0709264
0.0709264
0.0709264
0.0709264
0.0709264
0.0709264
0.0709264
0.0709264
0.0709264
0.0709264
0.0709264
0.0709264
0.0709264
0.0709264
0.0709264
0.0709264
0.0709264
0.0709264
0.0709264
0.0709264
0.0709264
0.0709264
0.0709264
0.0709264
0.0709264
0.0709264
0.0709264
0.0709264
0.0709264
0.0709264
0.0709264
0.0709264
0.0709264
0.0709264
0.0709264
0.0709264
0.0709264
0.0709264
0.0709264
0.0709264
0.0709264
0.0709264
0.0709264
0.0709264
0.0709264
0.0709264
0.0709264
0.0709264
0.0709264
0.0709264
0.0709264
0.0709263
0.0709263
0.0709263
0.0709263
0.0709263
0.0709263
0.0709263
0.0709263
0.0709263
0.0709263
0.0709263
0.0709263
0.0709263
0.0709263
0.0709263
0.0709263
0.0709263
0.0709263
0.0709263
0.0709263
0.0709263
0.0709263
0.0709263
0.0709263
0.0709263
0.0709263
0.0709263
0.0709263
0.0709263
0.0709263
0.0709263
0.0709263
0.0709263
0.0709263
0.0709263
0.0709263
0.0709263
0.0709263
0.0709263
0.0709263
0.0709263
0.0709263
0.0709263
0.0709263
0.0709263
0.0709263
0.0709263
0.0709263
0.0709263
0.0709263
0.0709263
0.0709263
0.0709263
0.0709263
0.0709263
0.0709263
0.0709263
0.0709263
0.0709263
0.0709263
0.0709263
0.0709263
0.0709263
0.0709263
0.0709263
0.0709263
0.0709263
0.0709263
0.0709262
0.0709262
0.0709262
0.0709262
0.0709262
0.0709262
0.0709262
0.0709262
0.0709262
0.0709262
0.0709262
0.0709262
0.0709262
0.0709262
0.0709262
0.0709262
0.0709262
0.0709262
0.0709262
0.0709262
0.0709262
0.0709262
0.0709262
0.0709262
0.0709262
0.0709262
0.0709262
0.0709262
0.0709262
0.0709262
0.0709262
0.0709262
0.0709262
0.0709262
0.0709262
0.0709262
0.0709262
0.0709262
0.0709262
0.0709262
0.0709262
0.0709262
0.0709262
0.0709262
0.0709262
0.0709262
0.0709262
0.0709262
0.0709261
0.0709261
0.0709261
0.0709261
0.0709261
0.0709261
0.0709261
0.0709261
0.0709261
0.0709261
0.0709261
0.0709261
0.0709261
0.0709261
0.0709261
0.0709261
0.0709261
0.0709261
0.0709261
0.0709261
0.0709261
0.0709261
0.0709261
0.0709261
0.0709261
0.0709261
0.0709261
0.0709261
0.0709261
0.0709261
0.0709261
0.0709261
0.0709261
0.0709261
0.0709261
0.0709261
0.070926
0.070926
0.070926
0.070926
0.070926
0.070926
0.070926
0.070926
0.070926
0.070926
0.070926
0.070926
0.070926
0.070926
0.070926
0.070926
0.070926
0.070926
0.070926
0.070926
0.070926
0.070926
0.070926
0.070926
0.070926
0.070926
0.070926
0.070926
0.070926
0.0709259
0.0709259
0.0709259
0.0709259
0.0709259
0.0709259
0.0709259
0.0709259
0.0709259
0.0709259
0.0709259
0.0709259
0.0709259
0.0709259
0.0709259
0.0709259
0.0709259
0.0709259
0.0709259
0.0709259
0.0709259
0.0709259
0.0709258
0.0709258
0.0709258
0.0709258
0.0709258
0.0709258
0.0709258
0.0709258
0.0709258
0.0709258
0.0709258
0.0709258
0.0709258
0.0709258
0.0709258
0.0709258
0.0709258
0.0709258
0.0709258
0.0709257
0.0709257
0.0709257
0.0709257
0.0709257
0.0709257
0.0709257
0.0709257
0.0709257
0.0709257
0.0709257
0.0709257
0.0709257
0.0709257
0.0709257
0.0709256
0.0709256
0.0709256
0.0709256
0.0709256
0.0709256
0.0709256
0.0709256
0.0709256
0.0709256
0.0709256
0.0709256
0.0709256
0.0709255
0.0709255
0.0709255
0.0709255
0.0709255
0.0709255
0.0709255
0.0709255
0.0709255
0.0709255
0.0709255
0.0709255
0.0709254
0.0709254
0.0709254
0.0709254
0.0709254
0.0709254
0.0709254
0.0709254
0.0709254
0.0709253
0.0709253
0.0709253
0.0709253
0.0709253
0.0709253
0.0709253
0.0709253
0.0709253
0.0709252
0.0709252
0.0709252
0.0709252
0.0709252
0.0709252
0.0709252
0.0709251
0.0709251
0.0709251
0.0709251
0.0709251
0.0709251
0.0709251
0.070925
0.070925
0.070925
0.070925
0.070925
0.070925
0.0709249
0.0709249
0.0709249
0.0709249
0.0709249
0.0709248
0.0709248
0.0709248
0.0709248
0.0709248
0.0709247
0.0709247
0.0709247
0.0709247
0.0709247
0.0709246
0.0709246
0.0709246
0.0709246
0.0709245
0.0709245
0.0709245
0.0709244
0.0709244
0.0709244
0.0709244
0.0709243
0.0709243
0.0709243
0.0709242
0.0709242
0.0709242
0.0709241
0.0709241
0.0709241
0.070924
0.070924
0.0709239
0.0709239
0.0709239
0.0709238
0.0709238
0.0709237
0.0709237
0.0709236
0.0709236
0.0709235
0.0709235
0.0709234
0.0709233
0.0709233
0.0709232
0.0709231
0.0709231
0.070923
0.0709229
0.0709229
0.0709228
0.0709227
0.0709226
0.0709225
0.0709224
0.0709224
0.0709223
0.0709222
0.070922
0.0709219
0.0709218
0.0709217
0.0709216
0.0709214
0.0709213
0.0709211
0.070921
0.0709208
0.0709206
0.0709204
0.0709202
0.07092
0.0709198
0.0709196
0.0709193
0.070919
0.0709187
0.0709184
0.0709181
0.0709177
0.0709173
0.0709169
0.0709164
0.0709158
0.0709152
0.0709146
0.0709139
0.070913
0.0709121
0.0709111
0.0709099
0.0709085
0.070907
0.0709051
0.070903
0.0709003
0.0708971
0.0708932
0.070888
0.0708812
0.0708718
0.070858
0.0708366
0.0708003
0.0707323
0.0705867
0.0702117
0.0690229
0.0645199
0.0380305
0.0188673
0.00932838
0.00462485
0.00230015
0.00114646
0.000572149
0.000285726
0.000142736
7.1315e-05
3.56317e-05
1.78019e-05
8.8929e-06
4.44177e-06
2.21819e-06
1.10758e-06
5.52995e-07
2.76103e-07
1.37871e-07
6.89e-08
3.44469e-08
1.72813e-08
8.72444e-09
4.41232e-09
2.26461e-09
1.52733e-09
1.00357e-09
5.90228e-10
3.87225e-10
2.89427e-10
2.34811e-10
2.13725e-10
2.00407e-10
1.92914e-10
1.87438e-10
1.85034e-10
1.83654e-10
1.83038e-10
1.82477e-10
1.82196e-10
1.82024e-10
1.81898e-10
1.81845e-10
1.818e-10
1.8178e-10
1.8177e-10
1.81765e-10
1.81762e-10
1.8176e-10
1.8176e-10
1.8176e-10
1.8176e-10
1.8176e-10
1.81761e-10
1.81762e-10
1.81763e-10
1.81764e-10
1.81765e-10
1.81765e-10
1.81766e-10
1.81767e-10
1.81768e-10
1.81769e-10
1.8177e-10
1.81771e-10
1.81772e-10
1.81772e-10
1.81773e-10
1.81774e-10
1.81774e-10
1.81775e-10
1.81776e-10
1.81777e-10
1.81778e-10
1.81778e-10
1.81779e-10
1.8178e-10
1.81781e-10
1.81781e-10
1.81782e-10
1.81783e-10
1.81784e-10
1.81785e-10
1.81786e-10
1.81787e-10
1.81788e-10
1.81788e-10
1.81789e-10
1.8179e-10
1.81791e-10
1.81791e-10
1.81792e-10
1.81793e-10
1.81794e-10
1.81794e-10
1.81795e-10
1.81796e-10
1.81797e-10
1.81798e-10
1.81799e-10
1.81799e-10
1.818e-10
1.81801e-10
1.81802e-10
1.81802e-10
1.81803e-10
1.81804e-10
1.81805e-10
1.81806e-10
1.81806e-10
1.81807e-10
1.81808e-10
1.81809e-10
1.8181e-10
1.81811e-10
1.81811e-10
1.81812e-10
1.81813e-10
1.81814e-10
1.81815e-10
1.81816e-10
1.81816e-10
1.81818e-10
1.81818e-10
1.81819e-10
1.8182e-10
1.81821e-10
1.81822e-10
1.81823e-10
1.81824e-10
1.81824e-10
1.81825e-10
1.81826e-10
1.81827e-10
1.81828e-10
1.81828e-10
1.81829e-10
1.8183e-10
1.81831e-10
1.81832e-10
1.81833e-10
1.81834e-10
1.81835e-10
1.81835e-10
1.81836e-10
1.81837e-10
1.81838e-10
1.81839e-10
1.81839e-10
1.8184e-10
1.81841e-10
1.81842e-10
1.81842e-10
1.81843e-10
1.81844e-10
1.81845e-10
1.81846e-10
1.81846e-10
1.81847e-10
1.81848e-10
1.81849e-10
1.81849e-10
1.8185e-10
1.81851e-10
1.81852e-10
1.81853e-10
1.81854e-10
1.81854e-10
1.81855e-10
1.81856e-10
1.81857e-10
1.81859e-10
1.81859e-10
1.8186e-10
1.81861e-10
1.81862e-10
1.81863e-10
1.81864e-10
1.81864e-10
1.81865e-10
1.81866e-10
1.81867e-10
1.81867e-10
1.81869e-10
1.81869e-10
1.8187e-10
1.81871e-10
1.81872e-10
1.81873e-10
1.81874e-10
1.81875e-10
1.81876e-10
1.81876e-10
1.81877e-10
1.81878e-10
1.81879e-10
1.8188e-10
1.81881e-10
1.81882e-10
1.81882e-10
1.81883e-10
1.81884e-10
1.81884e-10
1.81885e-10
1.81886e-10
1.81887e-10
1.81888e-10
1.81889e-10
1.81889e-10
1.8189e-10
1.81891e-10
1.81892e-10
1.81893e-10
1.81893e-10
1.81894e-10
1.81895e-10
1.81896e-10
1.81897e-10
1.81897e-10
1.81899e-10
1.81899e-10
1.819e-10
1.81901e-10
1.81902e-10
1.81903e-10
1.81903e-10
1.81904e-10
1.81905e-10
1.81906e-10
1.81907e-10
1.81908e-10
1.81908e-10
1.81909e-10
1.8191e-10
1.81911e-10
1.81912e-10
1.81912e-10
1.81913e-10
1.81914e-10
1.81915e-10
1.81916e-10
1.81917e-10
1.81917e-10
1.81919e-10
1.81919e-10
1.8192e-10
1.81921e-10
1.81922e-10
1.81922e-10
1.81924e-10
1.81924e-10
1.81925e-10
1.81926e-10
1.81927e-10
1.81928e-10
1.81928e-10
1.81929e-10
1.8193e-10
1.81931e-10
1.81932e-10
1.81933e-10
1.81934e-10
1.81934e-10
1.81935e-10
1.81936e-10
1.81937e-10
1.81938e-10
1.81939e-10
1.8194e-10
1.8194e-10
1.81941e-10
1.81942e-10
1.81943e-10
1.81944e-10
1.81945e-10
1.81945e-10
1.81946e-10
1.81947e-10
1.81948e-10
1.81949e-10
)
;

boundaryField
{
    fixedWall
    {
        type            zeroGradient;
    }
    outlet
    {
        type            inletOutlet;
        inletValue      uniform 0;
        value           uniform 1.81949e-10;
    }
    defaultFaces
    {
        type            empty;
    }
}


// ************************************************************************* //
