/*--------------------------------*- C++ -*----------------------------------*\
| =========                 |                                                 |
| \\      /  F ield         | OpenFOAM: The Open Source CFD Toolbox           |
|  \\    /   O peration     | Version:  2406                                  |
|   \\  /    A nd           | Website:  www.openfoam.com                      |
|    \\/     M anipulation  |                                                 |
\*---------------------------------------------------------------------------*/
FoamFile
{
    version     2.0;
    format      ascii;
    arch        "LSB;label=32;scalar=64";
    class       surfaceScalarField;
    location    "4.5";
    object      phi;
}
// * * * * * * * * * * * * * * * * * * * * * * * * * * * * * * * * * * * * * //

dimensions      [1 0 -1 0 0 0 0];

oriented        oriented;

internalField   nonuniform List<scalar> 
999
(
-6.09443e-08
-1.9008e-07
-3.53059e-07
-5.33116e-07
-7.21358e-07
-9.1278e-07
-1.10445e-06
-1.29461e-06
-1.48217e-06
-1.6665e-06
-1.84719e-06
-2.02401e-06
-2.19686e-06
-2.36569e-06
-2.5305e-06
-2.69131e-06
-2.84819e-06
-3.00118e-06
-3.15037e-06
-3.29582e-06
-3.4376e-06
-3.5758e-06
-3.71049e-06
-3.84174e-06
-3.96962e-06
-4.0942e-06
-4.21555e-06
-4.33373e-06
-4.44881e-06
-4.56084e-06
-4.66989e-06
-4.77601e-06
-4.87926e-06
-4.97969e-06
-5.07735e-06
-5.1723e-06
-5.26459e-06
-5.35425e-06
-5.44135e-06
-5.52592e-06
-5.60802e-06
-5.68769e-06
-5.76497e-06
-5.83991e-06
-5.91255e-06
-5.98294e-06
-6.05112e-06
-6.11713e-06
-6.18101e-06
-6.2428e-06
-6.30256e-06
-6.36031e-06
-6.4161e-06
-6.46997e-06
-6.52196e-06
-6.57212e-06
-6.62048e-06
-6.66708e-06
-6.71197e-06
-6.75518e-06
-6.79676e-06
-6.83674e-06
-6.87517e-06
-6.91208e-06
-6.94751e-06
-6.9815e-06
-7.0141e-06
-7.04533e-06
-7.07525e-06
-7.10387e-06
-7.13126e-06
-7.15743e-06
-7.18243e-06
-7.20629e-06
-7.22905e-06
-7.25075e-06
-7.27142e-06
-7.2911e-06
-7.30981e-06
-7.3276e-06
-7.3445e-06
-7.36053e-06
-7.37574e-06
-7.39015e-06
-7.40379e-06
-7.4167e-06
-7.4289e-06
-7.44042e-06
-7.45129e-06
-7.46159e-06
-7.47098e-06
-7.48006e-06
-7.48844e-06
-7.49656e-06
-7.50416e-06
-7.51124e-06
-7.51785e-06
-7.52401e-06
-7.52977e-06
-7.53513e-06
-7.54013e-06
-7.54478e-06
-7.54909e-06
-7.55309e-06
-7.55679e-06
-7.56021e-06
-7.56336e-06
-7.56626e-06
-7.56892e-06
-7.57136e-06
-7.57359e-06
-7.57562e-06
-7.57746e-06
-7.57912e-06
-7.58063e-06
-7.58197e-06
-7.58318e-06
-7.58424e-06
-7.58518e-06
-7.586e-06
-7.58671e-06
-7.58732e-06
-7.58783e-06
-7.58825e-06
-7.58859e-06
-7.58885e-06
-7.58904e-06
-7.58916e-06
-7.58922e-06
-7.58922e-06
-7.58917e-06
-7.58907e-06
-7.58893e-06
-7.58874e-06
-7.58852e-06
-7.58826e-06
-7.58796e-06
-7.58764e-06
-7.58729e-06
-7.58692e-06
-7.58652e-06
-7.5861e-06
-7.58567e-06
-7.58521e-06
-7.58474e-06
-7.58426e-06
-7.58376e-06
-7.58325e-06
-7.58274e-06
-7.58221e-06
-7.58167e-06
-7.58113e-06
-7.58058e-06
-7.58002e-06
-7.57946e-06
-7.57889e-06
-7.57832e-06
-7.57775e-06
-7.57717e-06
-7.57659e-06
-7.57601e-06
-7.57542e-06
-7.57484e-06
-7.57425e-06
-7.57366e-06
-7.57307e-06
-7.57248e-06
-7.57188e-06
-7.57129e-06
-7.5707e-06
-7.5701e-06
-7.56951e-06
-7.56891e-06
-7.56832e-06
-7.56773e-06
-7.56713e-06
-7.56654e-06
-7.56594e-06
-7.56535e-06
-7.56475e-06
-7.56416e-06
-7.56357e-06
-7.56297e-06
-7.56238e-06
-7.56179e-06
-7.56119e-06
-7.5606e-06
-7.56e-06
-7.55941e-06
-7.55882e-06
-7.55822e-06
-7.55763e-06
-7.55704e-06
-7.55644e-06
-7.55585e-06
-7.55526e-06
-7.55466e-06
-7.55407e-06
-7.55348e-06
-7.55288e-06
-7.55229e-06
-7.55169e-06
-7.5511e-06
-7.5505e-06
-7.54991e-06
-7.54931e-06
-7.54872e-06
-7.54812e-06
-7.54752e-06
-7.54693e-06
-7.54633e-06
-7.54573e-06
-7.54513e-06
-7.54453e-06
-7.54394e-06
-7.54334e-06
-7.54274e-06
-7.54214e-06
-7.54153e-06
-7.54093e-06
-7.54033e-06
-7.53973e-06
-7.53913e-06
-7.53852e-06
-7.53792e-06
-7.53731e-06
-7.53671e-06
-7.5361e-06
-7.5355e-06
-7.53489e-06
-7.53428e-06
-7.53368e-06
-7.53307e-06
-7.53246e-06
-7.53185e-06
-7.53124e-06
-7.53063e-06
-7.53001e-06
-7.5294e-06
-7.52879e-06
-7.52818e-06
-7.52756e-06
-7.52695e-06
-7.52633e-06
-7.52572e-06
-7.5251e-06
-7.52448e-06
-7.52386e-06
-7.52325e-06
-7.52263e-06
-7.52201e-06
-7.52139e-06
-7.52077e-06
-7.52015e-06
-7.51952e-06
-7.5189e-06
-7.51828e-06
-7.51765e-06
-7.51703e-06
-7.51641e-06
-7.51578e-06
-7.51515e-06
-7.51453e-06
-7.5139e-06
-7.51327e-06
-7.51265e-06
-7.51202e-06
-7.51139e-06
-7.51076e-06
-7.51013e-06
-7.5095e-06
-7.50887e-06
-7.50824e-06
-7.50761e-06
-7.50698e-06
-7.50634e-06
-7.50571e-06
-7.50508e-06
-7.50445e-06
-7.50381e-06
-7.50318e-06
-7.50255e-06
-7.50191e-06
-7.50128e-06
-7.50065e-06
-7.50001e-06
-7.49938e-06
-7.49875e-06
-7.49811e-06
-7.49748e-06
-7.49684e-06
-7.49621e-06
-7.49558e-06
-7.49494e-06
-7.49431e-06
-7.49368e-06
-7.49304e-06
-7.49241e-06
-7.49177e-06
-7.49114e-06
-7.49051e-06
-7.48987e-06
-7.48924e-06
-7.4886e-06
-7.48797e-06
-7.48734e-06
-7.4867e-06
-7.48607e-06
-7.48544e-06
-7.4848e-06
-7.48417e-06
-7.48353e-06
-7.4829e-06
-7.48227e-06
-7.48163e-06
-7.481e-06
-7.48036e-06
-7.47973e-06
-7.4791e-06
-7.47846e-06
-7.47783e-06
-7.47719e-06
-7.47656e-06
-7.47592e-06
-7.47529e-06
-7.47465e-06
-7.47401e-06
-7.47338e-06
-7.47274e-06
-7.47211e-06
-7.47147e-06
-7.47083e-06
-7.47019e-06
-7.46955e-06
-7.46891e-06
-7.46828e-06
-7.46764e-06
-7.467e-06
-7.46636e-06
-7.46572e-06
-7.46508e-06
-7.46444e-06
-7.4638e-06
-7.46316e-06
-7.46252e-06
-7.46188e-06
-7.46124e-06
-7.4606e-06
-7.45996e-06
-7.45932e-06
-7.45867e-06
-7.45803e-06
-7.45739e-06
-7.45675e-06
-7.45611e-06
-7.45547e-06
-7.45483e-06
-7.45419e-06
-7.45355e-06
-7.45291e-06
-7.45227e-06
-7.45163e-06
-7.451e-06
-7.45036e-06
-7.44972e-06
-7.44908e-06
-7.44845e-06
-7.44781e-06
-7.44718e-06
-7.44654e-06
-7.44591e-06
-7.44528e-06
-7.44465e-06
-7.44402e-06
-7.44339e-06
-7.44276e-06
-7.44213e-06
-7.4415e-06
-7.44088e-06
-7.44026e-06
-7.43963e-06
-7.43901e-06
-7.43839e-06
-7.43777e-06
-7.43715e-06
-7.43653e-06
-7.43592e-06
-7.43531e-06
-7.43469e-06
-7.43408e-06
-7.43347e-06
-7.43286e-06
-7.43225e-06
-7.43165e-06
-7.43104e-06
-7.43044e-06
-7.42983e-06
-7.42923e-06
-7.42863e-06
-7.42803e-06
-7.42743e-06
-7.42683e-06
-7.42623e-06
-7.42563e-06
-7.42503e-06
-7.42443e-06
-7.42384e-06
-7.42324e-06
-7.42264e-06
-7.42204e-06
-7.42144e-06
-7.42084e-06
-7.42023e-06
-7.41963e-06
-7.41903e-06
-7.41842e-06
-7.41781e-06
-7.41721e-06
-7.41659e-06
-7.41598e-06
-7.41537e-06
-7.41475e-06
-7.41413e-06
-7.4135e-06
-7.41288e-06
-7.41225e-06
-7.41162e-06
-7.41098e-06
-7.41035e-06
-7.4097e-06
-7.40906e-06
-7.40841e-06
-7.40776e-06
-7.40711e-06
-7.40645e-06
-7.40579e-06
-7.40513e-06
-7.40447e-06
-7.4038e-06
-7.40313e-06
-7.40246e-06
-7.40178e-06
-7.40111e-06
-7.40043e-06
-7.39975e-06
-7.39907e-06
-7.39839e-06
-7.39771e-06
-7.39703e-06
-7.39635e-06
-7.39567e-06
-7.39499e-06
-7.39431e-06
-7.39363e-06
-7.39295e-06
-7.39228e-06
-7.39161e-06
-7.39093e-06
-7.39026e-06
-7.3896e-06
-7.38893e-06
-7.38827e-06
-7.38761e-06
-7.38696e-06
-7.3863e-06
-7.38565e-06
-7.38501e-06
-7.38436e-06
-7.38372e-06
-7.38308e-06
-7.38245e-06
-7.38181e-06
-7.38118e-06
-7.38055e-06
-7.37993e-06
-7.3793e-06
-7.37868e-06
-7.37806e-06
-7.37743e-06
-7.37681e-06
-7.3762e-06
-7.37558e-06
-7.37496e-06
-7.37434e-06
-7.37372e-06
-7.3731e-06
-7.37248e-06
-7.37186e-06
-7.37123e-06
-7.37061e-06
-7.36998e-06
-7.36935e-06
-7.36872e-06
-7.36809e-06
-7.36745e-06
-7.36682e-06
-7.36618e-06
-7.36554e-06
-7.3649e-06
-7.36425e-06
-7.3636e-06
-7.36295e-06
-7.3623e-06
-7.36165e-06
-7.361e-06
-7.36034e-06
-7.35968e-06
-7.35902e-06
-7.35836e-06
-7.3577e-06
-7.35704e-06
-7.35638e-06
-7.35571e-06
-7.35505e-06
-7.35438e-06
-7.35371e-06
-7.35305e-06
-7.35238e-06
-7.35171e-06
-7.35104e-06
-7.35037e-06
-7.3497e-06
-7.34903e-06
-7.34836e-06
-7.34769e-06
-7.34701e-06
-7.34634e-06
-7.34567e-06
-7.34499e-06
-7.34432e-06
-7.34364e-06
-7.34297e-06
-7.34229e-06
-7.34162e-06
-7.34094e-06
-7.34027e-06
-7.3396e-06
-7.33892e-06
-7.33825e-06
-7.33759e-06
-7.33692e-06
-7.33626e-06
-7.33559e-06
-7.33493e-06
-7.33428e-06
-7.33362e-06
-7.33297e-06
-7.33233e-06
-7.33168e-06
-7.33104e-06
-7.33041e-06
-7.32977e-06
-7.32914e-06
-7.32852e-06
-7.32789e-06
-7.32727e-06
-7.32666e-06
-7.32604e-06
-7.32543e-06
-7.32481e-06
-7.3242e-06
-7.32359e-06
-7.32298e-06
-7.32237e-06
-7.32176e-06
-7.32114e-06
-7.32053e-06
-7.31991e-06
-7.31928e-06
-7.31866e-06
-7.31802e-06
-7.31739e-06
-7.31674e-06
-7.31609e-06
-7.31543e-06
-7.31476e-06
-7.31409e-06
-7.3134e-06
-7.31271e-06
-7.312e-06
-7.31128e-06
-7.31056e-06
-7.30982e-06
-7.30907e-06
-7.30831e-06
-7.30754e-06
-7.30676e-06
-7.30597e-06
-7.30517e-06
-7.30436e-06
-7.30354e-06
-7.30272e-06
-7.30189e-06
-7.30106e-06
-7.30023e-06
-7.29939e-06
-7.29855e-06
-7.29771e-06
-7.29688e-06
-7.29604e-06
-7.29521e-06
-7.29439e-06
-7.29357e-06
-7.29276e-06
-7.29196e-06
-7.29116e-06
-7.29037e-06
-7.28959e-06
-7.28882e-06
-7.28806e-06
-7.28731e-06
-7.28657e-06
-7.28584e-06
-7.28511e-06
-7.2844e-06
-7.28369e-06
-7.28299e-06
-7.2823e-06
-7.28162e-06
-7.28095e-06
-7.28029e-06
-7.27964e-06
-7.279e-06
-7.27837e-06
-7.27775e-06
-7.27715e-06
-7.27655e-06
-7.27597e-06
-7.27541e-06
-7.27485e-06
-7.27431e-06
-7.27378e-06
-7.27326e-06
-7.27275e-06
-7.27225e-06
-7.27174e-06
-7.27124e-06
-7.27073e-06
-7.27022e-06
-7.26969e-06
-7.26914e-06
-7.26858e-06
-7.26798e-06
-7.26736e-06
-7.2667e-06
-7.26601e-06
-7.26527e-06
-7.26448e-06
-7.26365e-06
-7.26277e-06
-7.26185e-06
-7.26087e-06
-7.25984e-06
-7.25876e-06
-7.25762e-06
-7.25644e-06
-7.25522e-06
-7.25394e-06
-7.25263e-06
-7.25127e-06
-7.24988e-06
-7.24846e-06
-7.24702e-06
-7.24555e-06
-7.24408e-06
-7.2426e-06
-7.24113e-06
-7.23967e-06
-7.23823e-06
-7.23682e-06
-7.23545e-06
-7.23412e-06
-7.23284e-06
-7.2316e-06
-7.23042e-06
-7.22928e-06
-7.22818e-06
-7.22712e-06
-7.2261e-06
-7.22511e-06
-7.22414e-06
-7.22318e-06
-7.22223e-06
-7.22128e-06
-7.22031e-06
-7.21931e-06
-7.21827e-06
-7.21719e-06
-7.21607e-06
-7.21489e-06
-7.21368e-06
-7.21244e-06
-7.21116e-06
-7.20984e-06
-7.20844e-06
-7.20688e-06
-7.20503e-06
-7.20272e-06
-7.19975e-06
-7.19585e-06
-7.19076e-06
-7.18425e-06
-7.17608e-06
-7.16607e-06
-7.15404e-06
-7.13983e-06
-7.12318e-06
-7.10379e-06
-7.08124e-06
-7.05523e-06
-7.02578e-06
-6.99321e-06
-6.95578e-06
-6.90065e-06
-6.77745e-06
-6.41882e-06
-5.25987e-06
-1.23967e-06
1.38117e-05
8.52723e-05
0.000245965
0.000425524
0.000590335
0.000716277
0.000799956
0.000850667
0.000879743
0.000895897
0.000904717
0.000909487
0.000912055
0.000913433
0.000914172
0.000914569
0.000914782
0.000914897
0.000914959
0.000914993
0.000915013
0.000915024
0.000915031
0.000915036
0.000915039
0.000915042
0.000915044
0.000915047
0.000915049
0.000915051
0.000915053
0.000915055
0.000915057
0.000915059
0.000915061
0.000915063
0.000915065
0.000915067
0.000915069
0.000915071
0.000915073
0.000915075
0.000915076
0.000915078
0.00091508
0.000915082
0.000915084
0.000915086
0.000915088
0.00091509
0.000915091
0.000915093
0.000915095
0.000915097
0.000915099
0.000915101
0.000915102
0.000915104
0.000915106
0.000915108
0.000915109
0.000915111
0.000915113
0.000915114
0.000915116
0.000915118
0.00091512
0.000915121
0.000915123
0.000915125
0.000915126
0.000915128
0.00091513
0.000915131
0.000915133
0.000915134
0.000915136
0.000915138
0.000915139
0.000915141
0.000915142
0.000915144
0.000915145
0.000915147
0.000915149
0.00091515
0.000915152
0.000915153
0.000915155
0.000915156
0.000915158
0.000915159
0.000915161
0.000915162
0.000915164
0.000915165
0.000915166
0.000915168
0.000915169
0.000915171
0.000915172
0.000915173
0.000915175
0.000915176
0.000915178
0.000915179
0.00091518
0.000915182
0.000915183
0.000915184
0.000915186
0.000915187
0.000915188
0.000915189
0.000915191
0.000915192
0.000915193
0.000915195
0.000915196
0.000915197
0.000915198
0.000915199
0.000915201
0.000915202
0.000915203
0.000915204
0.000915205
0.000915206
0.000915208
0.000915209
0.00091521
0.000915211
0.000915212
0.000915213
0.000915214
0.000915215
0.000915216
0.000915217
0.000915219
0.00091522
0.000915221
0.000915222
0.000915223
0.000915224
0.000915225
0.000915226
0.000915227
0.000915228
0.000915229
0.00091523
0.000915231
0.000915232
0.000915233
0.000915234
0.000915234
0.000915235
0.000915236
0.000915237
0.000915238
0.000915239
0.00091524
0.000915241
0.000915242
0.000915243
0.000915243
0.000915244
0.000915245
0.000915246
0.000915247
0.000915247
0.000915248
0.000915249
0.00091525
0.00091525
0.000915251
0.000915252
0.000915253
0.000915253
0.000915254
0.000915255
0.000915255
0.000915256
0.000915257
0.000915257
0.000915258
0.000915259
0.000915259
0.00091526
0.000915261
0.000915261
0.000915262
0.000915262
0.000915263
0.000915264
0.000915264
0.000915265
0.000915265
0.000915266
0.000915266
0.000915267
0.000915267
0.000915268
0.000915269
0.000915269
0.00091527
0.00091527
0.000915271
0.000915271
0.000915271
0.000915272
0.000915272
0.000915273
0.000915273
0.000915274
0.000915274
0.000915274
0.000915275
0.000915275
0.000915276
0.000915276
0.000915276
0.000915277
0.000915277
0.000915277
0.000915278
0.000915278
0.000915278
0.000915278
0.000915279
0.000915279
0.000915279
0.000915279
0.00091528
0.00091528
0.00091528
0.00091528
0.000915281
0.000915281
0.000915281
0.000915281
0.000915281
0.000915282
0.000915282
0.000915282
0.000915282
0.000915282
0.000915282
0.000915282
0.000915282
0.000915283
0.000915283
0.000915283
0.000915283
0.000915283
0.000915283
0.000915283
0.000915283
0.000915283
0.000915283
0.000915283
0.000915283
0.000915283
0.000915283
0.000915283
0.000915283
0.000915283
0.000915283
0.000915283
0.000915283
0.000915283
0.000915283
0.000915283
0.000915282
0.000915282
0.000915282
0.000915282
0.000915282
0.000915282
0.000915282
0.000915281
0.000915281
)
;

boundaryField
{
    fixedWall
    {
        type            calculated;
        value           uniform 0;
    }
    outlet
    {
        type            calculated;
        value           uniform 0.000915281;
    }
    defaultFaces
    {
        type            empty;
    }
}


// ************************************************************************* //
