/*--------------------------------*- C++ -*----------------------------------*\
| =========                 |                                                 |
| \\      /  F ield         | OpenFOAM: The Open Source CFD Toolbox           |
|  \\    /   O peration     | Version:  2406                                  |
|   \\  /    A nd           | Website:  www.openfoam.com                      |
|    \\/     M anipulation  |                                                 |
\*---------------------------------------------------------------------------*/
FoamFile
{
    version     2.0;
    format      ascii;
    arch        "LSB;label=32;scalar=64";
    class       volScalarField;
    location    "4.5";
    object      Qdot;
}
// * * * * * * * * * * * * * * * * * * * * * * * * * * * * * * * * * * * * * //

dimensions      [1 -1 -3 0 0 0 0];

internalField   nonuniform List<scalar> 
1000
(
-1.33148e-07
-1.07845e-07
7.26197e-13
8.75045e-08
4.46028e-07
2.77723e-06
1.1032e-05
3.46858e-05
9.31658e-05
0.000219173
0.000463162
0.000895516
0.00160733
0.00270796
0.00432136
0.0065799
0.00961665
0.0135583
0.0185166
0.0245822
0.0318186
0.0402588
0.0499026
0.0607167
0.0726363
0.0855677
0.0993924
0.113973
0.129155
0.14478
0.160681
0.176696
0.192669
0.208452
0.223912
0.23893
0.253404
0.267251
0.280404
0.292813
0.304444
0.31528
0.325316
0.334559
0.343026
0.350743
0.357743
0.364064
0.369748
0.374839
0.379384
0.383429
0.38702
0.390203
0.39302
0.395514
0.397724
0.399686
0.401435
0.403001
0.404415
0.405701
0.406883
0.407982
0.409017
0.410003
0.410957
0.411889
0.412811
0.413731
0.414658
0.415598
0.416557
0.417537
0.418543
0.419578
0.420642
0.421738
0.422866
0.424026
0.425219
0.426443
0.427699
0.428984
0.430299
0.431643
0.433013
0.434409
0.435829
0.437273
0.438736
0.440221
0.441718
0.443236
0.444778
0.446334
0.447905
0.44949
0.451087
0.452696
0.454316
0.455947
0.457587
0.459236
0.460893
0.462559
0.464232
0.465912
0.467599
0.469293
0.470993
0.472699
0.474411
0.476129
0.477852
0.479582
0.481316
0.483057
0.484803
0.486555
0.488312
0.490075
0.491844
0.493619
0.4954
0.497188
0.498981
0.500781
0.502587
0.5044
0.50622
0.508047
0.509881
0.511722
0.513571
0.515427
0.517291
0.519163
0.521043
0.522931
0.524827
0.526732
0.528645
0.530568
0.532499
0.534439
0.536389
0.538348
0.540316
0.542294
0.544282
0.54628
0.548282
0.550284
0.552314
0.554356
0.556407
0.558469
0.560542
0.562625
0.564719
0.566824
0.56894
0.571068
0.573206
0.575357
0.577519
0.579692
0.581878
0.584076
0.586286
0.588508
0.590743
0.59299
0.595249
0.597522
0.599807
0.602105
0.604416
0.606741
0.609078
0.61143
0.613794
0.616172
0.618564
0.62097
0.623389
0.625823
0.628271
0.630733
0.633209
0.6357
0.638205
0.640725
0.64326
0.64581
0.648374
0.650954
0.653549
0.65616
0.658785
0.661427
0.664084
0.666757
0.669445
0.67215
0.674871
0.677608
0.680362
0.683132
0.685918
0.688722
0.691542
0.694379
0.697233
0.700105
0.702994
0.705901
0.708825
0.711767
0.714727
0.717705
0.720701
0.723715
0.726748
0.7298
0.73287
0.73596
0.739068
0.742196
0.745343
0.74851
0.751696
0.754902
0.758129
0.761375
0.764642
0.767929
0.771237
0.774566
0.777916
0.781287
0.78468
0.788094
0.79153
0.794988
0.798467
0.80197
0.805494
0.809042
0.812612
0.816205
0.819822
0.823461
0.827125
0.830812
0.834524
0.83826
0.84202
0.845805
0.849614
0.853449
0.857309
0.861195
0.865106
0.869043
0.873007
0.876997
0.881014
0.885058
0.889129
0.893227
0.897353
0.901507
0.905689
0.9099
0.91414
0.918408
0.922706
0.927034
0.931391
0.935779
0.940198
0.944647
0.949127
0.953639
0.958183
0.962759
0.967367
0.972008
0.976682
0.98139
0.986132
0.990908
0.995718
1.00056
1.00544
1.01036
1.01529
1.02024
1.02527
1.03033
1.03543
1.04057
1.04575
1.05097
1.05622
1.06152
1.06686
1.07223
1.07765
1.08311
1.08861
1.09415
1.09974
1.10536
1.11104
1.11675
1.12251
1.12831
1.13416
1.14006
1.146
1.15198
1.15802
1.1641
1.17023
1.1764
1.18263
1.1889
1.19523
1.2016
1.20803
1.21451
1.22103
1.22761
1.23425
1.24093
1.24767
1.25446
1.26131
1.26822
1.27518
1.28219
1.28926
1.29639
1.30358
1.31083
1.31813
1.3255
1.33292
1.34041
1.34796
1.35557
1.36325
1.37098
1.37879
1.38666
1.39459
1.40259
1.41066
1.4188
1.427
1.43528
1.44363
1.45205
1.46054
1.46911
1.47775
1.48646
1.49525
1.50412
1.51307
1.5221
1.5312
1.54039
1.54966
1.55902
1.56846
1.57798
1.58759
1.59729
1.60708
1.61696
1.62693
1.637
1.64715
1.65741
1.66776
1.67821
1.68876
1.6994
1.71015
1.72101
1.73197
1.74303
1.7542
1.76548
1.77688
1.78836
1.79987
1.8116
1.82345
1.83542
1.84751
1.85972
1.87205
1.88451
1.8971
1.90982
1.92266
1.93564
1.94875
1.962
1.97539
1.98891
2.00258
2.01639
2.03034
2.04444
2.05868
2.07308
2.08763
2.10233
2.11719
2.1322
2.14737
2.16271
2.17821
2.19387
2.2097
2.22569
2.24186
2.2582
2.27472
2.29141
2.30829
2.32535
2.34259
2.36002
2.37764
2.39545
2.41345
2.43165
2.45005
2.46864
2.48727
2.50627
2.52548
2.54492
2.56459
2.58449
2.60461
2.62497
2.64556
2.66639
2.68746
2.70878
2.73036
2.75219
2.77428
2.79663
2.81926
2.84216
2.86534
2.88881
2.91257
2.93662
2.96098
2.98564
3.01062
3.03591
3.06153
3.08747
3.11375
3.14038
3.16735
3.19467
3.22236
3.2504
3.27883
3.30763
3.33681
3.36639
3.39636
3.42674
3.45745
3.48838
3.52004
3.55212
3.58465
3.61763
3.65106
3.68496
3.71933
3.75417
3.7895
3.82533
3.86166
3.89851
3.93588
3.97378
4.01223
4.05124
4.09081
4.13096
4.1717
4.21303
4.25498
4.29756
4.34078
4.38464
4.42918
4.47439
4.5203
4.56692
4.61426
4.66234
4.71118
4.7608
4.81089
4.86163
4.91364
4.96646
5.02013
5.07466
5.13007
5.18639
5.24364
5.30182
5.36098
5.42112
5.48226
5.54444
5.60767
5.67198
5.73739
5.80393
5.87163
5.9405
6.01058
6.08191
6.1545
6.22839
6.30362
6.38021
6.45821
6.53765
6.61857
6.70102
6.78506
6.86998
6.95643
7.0453
7.13584
7.22811
7.32219
7.41812
7.51596
7.61577
7.7176
7.8215
7.92754
8.03577
8.14625
8.25905
8.37423
8.49187
8.61202
8.73477
8.86019
8.98835
9.11934
9.25323
9.39012
9.53008
9.6732
9.81959
9.96933
10.1225
10.2793
10.4397
10.6038
10.7719
10.9439
11.1201
11.3005
11.4853
11.6746
11.8686
12.066
12.2679
12.4767
12.6906
12.91
13.135
13.3658
13.6026
13.8456
14.0951
14.3513
14.6145
14.8848
15.1627
15.4482
15.7418
16.0438
16.3544
16.674
17.003
17.3417
17.6905
18.0498
18.4201
18.8017
19.1952
19.601
20.0198
20.4519
20.8981
21.3588
21.8349
22.3269
22.8357
23.3619
23.9064
24.4702
25.0541
25.6573
26.2786
26.9288
27.6033
28.3035
29.0308
29.7868
30.5729
31.3907
32.2421
33.1288
34.0527
35.016
36.0209
37.0698
38.1651
39.3096
40.5063
41.7583
43.0689
44.4418
45.8809
47.3904
48.975
50.6394
52.3891
54.2296
56.1673
58.2086
60.3609
62.6321
65.0312
67.551
70.2079
73.0457
76.0524
79.2423
82.6311
86.2361
90.0764
94.1735
98.5512
103.236
108.258
113.651
119.453
125.705
132.456
139.759
147.675
156.276
165.639
175.858
187.038
199.302
212.788
227.54
244.023
262.33
282.74
305.588
331.279
360.31
393.286
430.959
474.255
524.327
582.618
650.942
731.609
827.597
942.8
1082.4
1253.42
1465.54
1732.43
2073.77
2518.64
3111.35
3921.84
5065.98
6747.99
9354.13
13670.4
21430.2
36882
72065.3
167465
480073
1.64317e+06
6.27487e+06
2.92612e+07
8.34928e+06
39858.9
150.248
1.53878
0.0631203
0.00858836
0.00268072
0.00139464
0.000974113
0.000801712
0.000721845
0.000682281
0.000662003
0.000651315
0.000645721
0.000642773
0.000641196
0.000640353
0.000639865
0.000639684
0.00063955
0.000639481
0.000639448
0.000639433
0.000639429
0.000639429
0.000639509
0.000639437
0.000639443
0.000639447
0.000639455
0.00063946
0.000639467
0.000639474
0.000639481
0.000639488
0.000639493
0.000639575
0.000639508
0.000639513
0.000639521
0.000639526
0.000639533
0.000639542
0.000639547
0.000639553
0.000639637
0.000639565
0.000639573
0.000639578
0.000639583
0.00063959
0.000639596
0.000639603
0.000639611
0.000639697
0.000639626
0.000639634
0.000639718
0.000639649
0.000639655
0.000639661
0.000639667
0.000639675
0.000639684
0.000639691
0.000639697
0.000639781
0.000639709
0.000639715
0.000639721
0.000639729
0.000639734
0.000639741
0.000639747
0.000639833
0.000639763
0.000639769
0.000639774
0.000639782
0.000639791
0.000639796
0.000639805
0.000639734
0.00063974
0.000639822
0.000639753
0.000639757
0.000639764
0.000639773
0.000639778
0.000639786
0.000639792
0.000639799
0.000639804
0.000639889
0.000639818
0.000639823
0.00063983
0.000639838
0.000639845
0.000639926
0.000639858
0.000639865
0.000639871
0.000639877
0.000639884
0.000639889
0.000639896
0.000639904
0.000639907
0.000639916
0.000639922
0.000640008
0.000640014
0.00064002
0.00063995
0.000639957
0.000639964
0.000639972
0.000639979
0.000639986
0.000639992
0.000639997
0.000640008
0.000640016
0.000640021
0.000640028
0.000640036
0.000640119
0.000640048
0.000640057
0.000640062
0.000640068
0.000640153
0.000640081
0.000640089
0.000640175
0.000640105
0.000640112
0.000640118
0.000640203
0.000640132
0.000640137
0.000640146
0.000640151
0.000640235
0.000640165
0.000640248
0.000640254
0.000640183
0.000640187
0.000640196
0.000640203
0.000640207
0.000640214
0.000640298
0.000640304
0.000640235
0.00064024
0.000640246
0.000640253
0.000640262
0.000640266
0.000640274
0.000640281
0.000640287
0.000640294
0.0006403
0.000640385
0.000640319
0.000640326
0.000640331
0.000640416
0.000640345
0.000640353
0.000640359
0.000640443
0.000640374
0.000640379
0.000640386
0.000640392
0.000640399
0.000640484
0.000640414
0.000640421
0.000640505
0.000640436
0.000640443
0.000640527
0.000640457
0.000640464
0.000640471
0.000640555
0.000640486
0.000640492
0.000640499
0.000640506
0.000640435
0.00064044
0.000640445
0.000640529
0.000640459
0.000640542
0.000640473
0.000640555
0.000640562
0.000640492
0.000640498
0.000640503
0.000640511
0.000640519
0.000640524
0.000640608
0.000640538
0.000640546
0.000640552
0.000640559
0.000640642
0.000640573
0.000640656
0.000640662
0.000640591
0.000640599
0.000640606
0.000640687
0.000640694
0.000640703
0.000640709
0.000640639
0.000640645
0.000640728
0.000640736
0.000640667
0.000640673
0.000640679
0.000640686
0.000640692
0.000640697
0.000640705
0.00064079
0.000640718
0.000640727
0.000640811
0.000640739
0.000640745
0.000640753
0.000640836
0.000640766
0.000640774
0.00064078
0.000640786
0.00064087
0.000640799
0.000640883
0.000640812
0.000640896
0.000640903
0.00064091
0.00064084
0.000640848
0.000640854
0.000640861
0.000640868
0.000640875
0.000640882
0.000640966
0.000640973
0.000640978
0.000640985
0.000640915
0.000640923
0.000640927
0.000640936
0.000641021
0.000641026
0.000640955
0.000640962
0.00064097
0.000641052
)
;

boundaryField
{
    fixedWall
    {
        type            calculated;
        value           uniform 0;
    }
    outlet
    {
        type            calculated;
        value           uniform 0;
    }
    defaultFaces
    {
        type            empty;
    }
}


// ************************************************************************* //
