/*--------------------------------*- C++ -*----------------------------------*\
| =========                 |                                                 |
| \\      /  F ield         | OpenFOAM: The Open Source CFD Toolbox           |
|  \\    /   O peration     | Version:  2406                                  |
|   \\  /    A nd           | Website:  www.openfoam.com                      |
|    \\/     M anipulation  |                                                 |
\*---------------------------------------------------------------------------*/
FoamFile
{
    version     2.0;
    format      ascii;
    arch        "LSB;label=32;scalar=64";
    class       volScalarField;
    location    "10.8";
    object      O2;
}
// * * * * * * * * * * * * * * * * * * * * * * * * * * * * * * * * * * * * * //

dimensions      [0 0 0 0 0 0 0];

internalField   nonuniform List<scalar> 
1000
(
1.12172e-06
1.11991e-06
1.11661e-06
1.11206e-06
1.10644e-06
1.09989e-06
1.09252e-06
1.08442e-06
1.07567e-06
1.06634e-06
1.05648e-06
1.04616e-06
1.0354e-06
1.02426e-06
1.01276e-06
1.00095e-06
9.88847e-07
9.76488e-07
9.63896e-07
9.51095e-07
9.38108e-07
9.24957e-07
9.11661e-07
8.98241e-07
8.84713e-07
8.71096e-07
8.57406e-07
8.4366e-07
8.29873e-07
8.16061e-07
8.02237e-07
7.88417e-07
7.74615e-07
7.60843e-07
7.47115e-07
7.33445e-07
7.19844e-07
7.06324e-07
6.92899e-07
6.79578e-07
6.66373e-07
6.53295e-07
6.40354e-07
6.2756e-07
6.14922e-07
6.02448e-07
5.90147e-07
5.78027e-07
5.66095e-07
5.54357e-07
5.42821e-07
5.3149e-07
5.2037e-07
5.09467e-07
4.98782e-07
4.88321e-07
4.78085e-07
4.68078e-07
4.583e-07
4.48753e-07
4.39437e-07
4.30354e-07
4.21503e-07
4.12883e-07
4.04494e-07
3.96334e-07
3.88401e-07
3.80694e-07
3.73211e-07
3.65948e-07
3.58904e-07
3.52074e-07
3.45456e-07
3.39047e-07
3.32843e-07
3.26839e-07
3.21033e-07
3.1542e-07
3.09997e-07
3.04758e-07
2.99701e-07
2.9482e-07
2.90111e-07
2.85571e-07
2.81194e-07
2.76977e-07
2.72915e-07
2.69004e-07
2.6524e-07
2.61618e-07
2.58134e-07
2.54785e-07
2.51566e-07
2.48473e-07
2.45503e-07
2.4265e-07
2.39913e-07
2.37286e-07
2.34767e-07
2.32351e-07
2.30035e-07
2.27816e-07
2.25691e-07
2.23656e-07
2.21708e-07
2.19844e-07
2.18061e-07
2.16356e-07
2.14726e-07
2.13168e-07
2.11681e-07
2.10261e-07
2.08905e-07
2.07612e-07
2.06378e-07
2.05203e-07
2.04082e-07
2.03015e-07
2.01999e-07
2.01032e-07
2.00113e-07
1.99239e-07
1.98408e-07
1.9762e-07
1.96871e-07
1.96161e-07
1.95488e-07
1.94851e-07
1.94248e-07
1.93677e-07
1.93137e-07
1.92627e-07
1.92146e-07
1.91693e-07
1.91266e-07
1.90864e-07
1.90486e-07
1.90132e-07
1.898e-07
1.89488e-07
1.89197e-07
1.88926e-07
1.88673e-07
1.88438e-07
1.88219e-07
1.88017e-07
1.87831e-07
1.87659e-07
1.87502e-07
1.87358e-07
1.87227e-07
1.87108e-07
1.87001e-07
1.86905e-07
1.86821e-07
1.86746e-07
1.86682e-07
1.86626e-07
1.8658e-07
1.86541e-07
1.86512e-07
1.86489e-07
1.86475e-07
1.86467e-07
1.86466e-07
1.86471e-07
1.86482e-07
1.865e-07
1.86523e-07
1.86551e-07
1.86584e-07
1.86622e-07
1.86664e-07
1.86711e-07
1.86762e-07
1.86817e-07
1.86875e-07
1.86937e-07
1.87003e-07
1.87072e-07
1.87144e-07
1.87219e-07
1.87296e-07
1.87376e-07
1.87459e-07
1.87545e-07
1.87632e-07
1.87721e-07
1.87813e-07
1.87907e-07
1.88003e-07
1.881e-07
1.88199e-07
1.883e-07
1.88402e-07
1.88506e-07
1.88611e-07
1.88718e-07
1.88825e-07
1.88934e-07
1.89044e-07
1.89156e-07
1.89268e-07
1.89381e-07
1.89495e-07
1.8961e-07
1.89726e-07
1.89843e-07
1.8996e-07
1.90078e-07
1.90197e-07
1.90317e-07
1.90437e-07
1.90558e-07
1.9068e-07
1.90802e-07
1.90924e-07
1.91047e-07
1.91171e-07
1.91295e-07
1.91419e-07
1.91544e-07
1.9167e-07
1.91795e-07
1.91922e-07
1.92048e-07
1.92175e-07
1.92302e-07
1.9243e-07
1.92558e-07
1.92686e-07
1.92814e-07
1.92943e-07
1.93072e-07
1.93201e-07
1.93331e-07
1.93461e-07
1.93591e-07
1.93721e-07
1.93852e-07
1.93983e-07
1.94114e-07
1.94245e-07
1.94376e-07
1.94508e-07
1.9464e-07
1.94772e-07
1.94904e-07
1.95036e-07
1.95169e-07
1.95301e-07
1.95434e-07
1.95567e-07
1.957e-07
1.95834e-07
1.95968e-07
1.96102e-07
1.96236e-07
1.9637e-07
1.96504e-07
1.96639e-07
1.96773e-07
1.96908e-07
1.97043e-07
1.97178e-07
1.97313e-07
1.97449e-07
1.97584e-07
1.9772e-07
1.97856e-07
1.97992e-07
1.98128e-07
1.98264e-07
1.98401e-07
1.98537e-07
1.98674e-07
1.98811e-07
1.98948e-07
1.99085e-07
1.99223e-07
1.9936e-07
1.99498e-07
1.99635e-07
1.99773e-07
1.99911e-07
2.0005e-07
2.00188e-07
2.00327e-07
2.00465e-07
2.00604e-07
2.00743e-07
2.00882e-07
2.01021e-07
2.01161e-07
2.013e-07
2.0144e-07
2.0158e-07
2.0172e-07
2.0186e-07
2.02e-07
2.0214e-07
2.02281e-07
2.02422e-07
2.02563e-07
2.02704e-07
2.02845e-07
2.02987e-07
2.03128e-07
2.0327e-07
2.03412e-07
2.03554e-07
2.03697e-07
2.03839e-07
2.03982e-07
2.04124e-07
2.04267e-07
2.04411e-07
2.04554e-07
2.04697e-07
2.04841e-07
2.04985e-07
2.05129e-07
2.05273e-07
2.05418e-07
2.05562e-07
2.05707e-07
2.05852e-07
2.05997e-07
2.06142e-07
2.06288e-07
2.06434e-07
2.06579e-07
2.06726e-07
2.06871e-07
2.07018e-07
2.07165e-07
2.07311e-07
2.07458e-07
2.07606e-07
2.07753e-07
2.07901e-07
2.08049e-07
2.08197e-07
2.08345e-07
2.08493e-07
2.08642e-07
2.08791e-07
2.0894e-07
2.09089e-07
2.09239e-07
2.09388e-07
2.09538e-07
2.09688e-07
2.09839e-07
2.09989e-07
2.1014e-07
2.10291e-07
2.10442e-07
2.10593e-07
2.10745e-07
2.10897e-07
2.11049e-07
2.11201e-07
2.11354e-07
2.11507e-07
2.11659e-07
2.11813e-07
2.11966e-07
2.1212e-07
2.12274e-07
2.12428e-07
2.12582e-07
2.12737e-07
2.12892e-07
2.13047e-07
2.13202e-07
2.13357e-07
2.13513e-07
2.13669e-07
2.13826e-07
2.13982e-07
2.14139e-07
2.14296e-07
2.14453e-07
2.1461e-07
2.14768e-07
2.14926e-07
2.15084e-07
2.15242e-07
2.15401e-07
2.1556e-07
2.15719e-07
2.15879e-07
2.16038e-07
2.16198e-07
2.16358e-07
2.16519e-07
2.16679e-07
2.1684e-07
2.17001e-07
2.17162e-07
2.17324e-07
2.17486e-07
2.17648e-07
2.1781e-07
2.17973e-07
2.18136e-07
2.18299e-07
2.18462e-07
2.18626e-07
2.1879e-07
2.18954e-07
2.19118e-07
2.19283e-07
2.19448e-07
2.19613e-07
2.19778e-07
2.19944e-07
2.20109e-07
2.20276e-07
2.20442e-07
2.20608e-07
2.20775e-07
2.20942e-07
2.2111e-07
2.21277e-07
2.21445e-07
2.21613e-07
2.21782e-07
2.2195e-07
2.22119e-07
2.22288e-07
2.22458e-07
2.22628e-07
2.22797e-07
2.22968e-07
2.23138e-07
2.23309e-07
2.2348e-07
2.23651e-07
2.23822e-07
2.23994e-07
2.24166e-07
2.24338e-07
2.24511e-07
2.24684e-07
2.24857e-07
2.2503e-07
2.25204e-07
2.25377e-07
2.25552e-07
2.25726e-07
2.25901e-07
2.26076e-07
2.26251e-07
2.26426e-07
2.26602e-07
2.26778e-07
2.26954e-07
2.27131e-07
2.27307e-07
2.27485e-07
2.27662e-07
2.27839e-07
2.28017e-07
2.28196e-07
2.28374e-07
2.28553e-07
2.28732e-07
2.28911e-07
2.29091e-07
2.29271e-07
2.29451e-07
2.29631e-07
2.29812e-07
2.29993e-07
2.30174e-07
2.30356e-07
2.30537e-07
2.3072e-07
2.30902e-07
2.31085e-07
2.31268e-07
2.31451e-07
2.31635e-07
2.31819e-07
2.32003e-07
2.32187e-07
2.32372e-07
2.32557e-07
2.32742e-07
2.32928e-07
2.33114e-07
2.333e-07
2.33487e-07
2.33674e-07
2.33861e-07
2.34048e-07
2.34236e-07
2.34424e-07
2.34613e-07
2.34801e-07
2.3499e-07
2.3518e-07
2.35369e-07
2.35559e-07
2.35749e-07
2.3594e-07
2.36131e-07
2.36322e-07
2.36513e-07
2.36705e-07
2.36897e-07
2.3709e-07
2.37282e-07
2.37475e-07
2.37669e-07
2.37862e-07
2.38056e-07
2.38251e-07
2.38445e-07
2.3864e-07
2.38836e-07
2.39031e-07
2.39227e-07
2.39423e-07
2.3962e-07
2.39817e-07
2.40014e-07
2.40211e-07
2.40409e-07
2.40608e-07
2.40806e-07
2.41005e-07
2.41204e-07
2.41403e-07
2.41603e-07
2.41803e-07
2.42004e-07
2.42205e-07
2.42406e-07
2.42607e-07
2.42809e-07
2.43011e-07
2.43214e-07
2.43416e-07
2.43619e-07
2.43823e-07
2.44027e-07
2.44231e-07
2.44435e-07
2.4464e-07
2.44845e-07
2.45051e-07
2.45257e-07
2.45463e-07
2.45669e-07
2.45876e-07
2.46083e-07
2.46291e-07
2.46499e-07
2.46707e-07
2.46915e-07
2.47124e-07
2.47334e-07
2.47543e-07
2.47753e-07
2.47963e-07
2.48174e-07
2.48385e-07
2.48596e-07
2.48808e-07
2.4902e-07
2.49233e-07
2.49445e-07
2.49659e-07
2.49872e-07
2.50086e-07
2.503e-07
2.50515e-07
2.5073e-07
2.50945e-07
2.51161e-07
2.51377e-07
2.51593e-07
2.5181e-07
2.52027e-07
2.52245e-07
2.52463e-07
2.52681e-07
2.529e-07
2.53119e-07
2.53338e-07
2.53558e-07
2.53778e-07
2.53999e-07
2.5422e-07
2.54441e-07
2.54663e-07
2.54885e-07
2.55108e-07
2.5533e-07
2.55554e-07
2.55777e-07
2.56002e-07
2.56226e-07
2.56451e-07
2.56676e-07
2.56902e-07
2.57128e-07
2.57355e-07
2.57582e-07
2.57809e-07
2.58037e-07
2.58265e-07
2.58493e-07
2.58722e-07
2.58952e-07
2.59182e-07
2.59412e-07
2.59643e-07
2.59874e-07
2.60104e-07
2.60335e-07
2.60567e-07
2.608e-07
2.61033e-07
2.61267e-07
2.61501e-07
2.61736e-07
2.6197e-07
2.62206e-07
2.62442e-07
2.62678e-07
2.62915e-07
2.63152e-07
2.63389e-07
2.63627e-07
2.63865e-07
2.64104e-07
2.64344e-07
2.64583e-07
2.64824e-07
2.65064e-07
2.65305e-07
2.65547e-07
2.65789e-07
2.66031e-07
2.66274e-07
2.66517e-07
2.66761e-07
2.67005e-07
2.6725e-07
2.67495e-07
2.6774e-07
2.67986e-07
2.68233e-07
2.6848e-07
2.68727e-07
2.68975e-07
2.69223e-07
2.69472e-07
2.69721e-07
2.69971e-07
2.70221e-07
2.70471e-07
2.70722e-07
2.70974e-07
2.71226e-07
2.71478e-07
2.71731e-07
2.71984e-07
2.72238e-07
2.72492e-07
2.72747e-07
2.73002e-07
2.73257e-07
2.73512e-07
2.73768e-07
2.74025e-07
2.74283e-07
2.74541e-07
2.74799e-07
2.75058e-07
2.75317e-07
2.75577e-07
2.75837e-07
2.76098e-07
2.76359e-07
2.7662e-07
2.76883e-07
2.77145e-07
2.77408e-07
2.77672e-07
2.77936e-07
2.782e-07
2.78465e-07
2.78731e-07
2.78997e-07
2.79263e-07
2.7953e-07
2.79798e-07
2.80065e-07
2.80334e-07
2.80603e-07
2.80872e-07
2.81142e-07
2.81413e-07
2.81683e-07
2.81955e-07
2.82227e-07
2.82499e-07
2.82772e-07
2.83046e-07
2.8332e-07
2.83594e-07
2.83869e-07
2.84145e-07
2.84421e-07
2.84698e-07
2.84975e-07
2.85252e-07
2.85531e-07
2.85809e-07
2.86089e-07
2.86369e-07
2.86649e-07
2.8693e-07
2.87212e-07
2.87494e-07
2.87776e-07
2.8806e-07
2.88344e-07
2.88628e-07
2.88913e-07
2.89198e-07
2.89485e-07
2.89771e-07
2.90059e-07
2.90347e-07
2.90635e-07
2.90924e-07
2.91214e-07
2.91505e-07
2.91796e-07
2.92087e-07
2.92378e-07
2.9267e-07
2.92963e-07
2.93257e-07
2.93552e-07
2.93848e-07
2.94144e-07
2.9444e-07
2.94735e-07
2.95033e-07
2.95331e-07
2.9563e-07
2.9593e-07
2.9623e-07
2.96531e-07
2.96833e-07
2.97135e-07
2.97438e-07
2.97741e-07
2.98046e-07
2.9835e-07
2.98656e-07
2.98962e-07
2.99269e-07
2.99576e-07
2.99884e-07
3.00193e-07
3.00503e-07
3.00813e-07
3.01124e-07
3.01435e-07
3.01747e-07
3.0206e-07
3.02374e-07
3.02688e-07
3.03003e-07
3.03318e-07
3.03634e-07
3.03951e-07
3.04269e-07
3.04587e-07
3.04906e-07
3.05226e-07
3.05546e-07
3.05868e-07
3.06189e-07
3.06512e-07
3.06835e-07
3.0716e-07
3.07484e-07
3.0781e-07
3.08136e-07
3.08464e-07
3.08792e-07
3.0912e-07
3.0945e-07
3.0978e-07
3.10112e-07
3.10444e-07
3.10777e-07
3.11111e-07
3.11446e-07
3.11782e-07
3.12119e-07
3.12457e-07
3.12797e-07
3.13137e-07
3.13478e-07
3.13821e-07
3.14165e-07
3.1451e-07
3.14857e-07
3.15205e-07
3.15555e-07
3.15906e-07
3.16259e-07
3.16613e-07
3.1697e-07
3.17329e-07
3.17689e-07
3.18052e-07
3.18417e-07
3.18785e-07
3.19156e-07
3.19529e-07
3.19905e-07
3.20285e-07
3.20668e-07
3.21054e-07
3.21445e-07
3.21839e-07
3.22239e-07
3.22643e-07
3.23052e-07
3.23466e-07
3.23887e-07
3.24314e-07
3.24747e-07
3.25188e-07
3.25636e-07
3.26093e-07
3.26559e-07
3.27034e-07
3.2752e-07
3.28016e-07
3.28524e-07
3.29045e-07
3.29579e-07
3.30127e-07
3.30691e-07
3.31271e-07
3.31869e-07
3.32486e-07
3.33123e-07
3.33782e-07
3.34463e-07
3.3517e-07
3.35903e-07
3.36664e-07
3.37455e-07
3.38278e-07
3.39136e-07
3.4003e-07
3.40963e-07
3.41937e-07
3.42956e-07
3.44022e-07
3.45139e-07
3.46309e-07
3.47535e-07
3.48822e-07
3.50174e-07
3.51594e-07
3.53086e-07
3.54655e-07
3.56306e-07
3.58044e-07
3.59874e-07
3.61801e-07
3.63831e-07
3.6597e-07
3.68225e-07
3.70602e-07
3.73108e-07
3.7575e-07
3.78537e-07
3.81476e-07
3.84574e-07
3.87842e-07
3.91288e-07
3.94922e-07
3.98753e-07
4.02791e-07
4.07047e-07
4.11532e-07
4.16258e-07
4.21236e-07
4.26478e-07
4.31996e-07
4.37804e-07
4.43916e-07
4.50343e-07
4.57101e-07
4.64204e-07
4.71665e-07
4.79501e-07
4.87726e-07
4.96355e-07
5.05403e-07
5.14886e-07
5.2482e-07
5.35219e-07
5.461e-07
5.57476e-07
5.69364e-07
5.81777e-07
5.94729e-07
6.08234e-07
6.22303e-07
6.36949e-07
6.52181e-07
6.68008e-07
6.84439e-07
7.01478e-07
7.1913e-07
7.37396e-07
7.56275e-07
7.75763e-07
7.95854e-07
8.16537e-07
8.37799e-07
8.59621e-07
8.81982e-07
9.04854e-07
9.28206e-07
9.51999e-07
9.76191e-07
1.00073e-06
1.02557e-06
1.05064e-06
1.07587e-06
1.1012e-06
1.12653e-06
1.15177e-06
1.17684e-06
1.20162e-06
1.22601e-06
1.24989e-06
1.27314e-06
1.29563e-06
1.31722e-06
1.33779e-06
1.35718e-06
1.37525e-06
1.39185e-06
1.40685e-06
1.42009e-06
1.43142e-06
1.4407e-06
1.44779e-06
1.45256e-06
1.45483e-06
1.45456e-06
1.45157e-06
1.44578e-06
1.43706e-06
1.42534e-06
1.41052e-06
1.39253e-06
1.37131e-06
1.34682e-06
1.31899e-06
1.28783e-06
1.2533e-06
1.21542e-06
1.1742e-06
1.12968e-06
1.0819e-06
1.03095e-06
9.76907e-07
9.19896e-07
8.6006e-07
7.97573e-07
7.32643e-07
6.65518e-07
5.96487e-07
5.25892e-07
4.54131e-07
3.81669e-07
3.09047e-07
2.36891e-07
1.65926e-07
9.69771e-08
3.09855e-08
)
;

boundaryField
{
    fixedWall
    {
        type            zeroGradient;
    }
    outlet
    {
        type            inletOutlet;
        inletValue      uniform 0;
        value           uniform 0;
    }
    defaultFaces
    {
        type            empty;
    }
}


// ************************************************************************* //
