/*--------------------------------*- C++ -*----------------------------------*\
| =========                 |                                                 |
| \\      /  F ield         | OpenFOAM: The Open Source CFD Toolbox           |
|  \\    /   O peration     | Version:  2406                                  |
|   \\  /    A nd           | Website:  www.openfoam.com                      |
|    \\/     M anipulation  |                                                 |
\*---------------------------------------------------------------------------*/
FoamFile
{
    version     2.0;
    format      ascii;
    arch        "LSB;label=32;scalar=64";
    class       surfaceScalarField;
    location    "10.8";
    object      phi;
}
// * * * * * * * * * * * * * * * * * * * * * * * * * * * * * * * * * * * * * //

dimensions      [1 0 -1 0 0 0 0];

oriented        oriented;

internalField   nonuniform List<scalar> 
999
(
-1.63869e-08
-5.47991e-08
-1.07141e-07
-1.68494e-07
-2.35733e-07
-3.06797e-07
-3.80288e-07
-4.55233e-07
-5.30942e-07
-6.06923e-07
-6.82818e-07
-7.58363e-07
-8.33373e-07
-9.07703e-07
-9.81253e-07
-1.05395e-06
-1.12573e-06
-1.19656e-06
-1.26643e-06
-1.3353e-06
-1.40317e-06
-1.47004e-06
-1.53591e-06
-1.60077e-06
-1.66464e-06
-1.72752e-06
-1.78942e-06
-1.85036e-06
-1.91033e-06
-1.96936e-06
-2.02746e-06
-2.08463e-06
-2.14089e-06
-2.19625e-06
-2.25072e-06
-2.30432e-06
-2.35705e-06
-2.40892e-06
-2.45996e-06
-2.51016e-06
-2.55955e-06
-2.60812e-06
-2.65589e-06
-2.70288e-06
-2.74908e-06
-2.79452e-06
-2.8392e-06
-2.88312e-06
-2.92631e-06
-2.96876e-06
-3.01049e-06
-3.05151e-06
-3.09182e-06
-3.13143e-06
-3.17035e-06
-3.2086e-06
-3.24617e-06
-3.28307e-06
-3.31932e-06
-3.35491e-06
-3.38987e-06
-3.42419e-06
-3.45789e-06
-3.49096e-06
-3.52342e-06
-3.55528e-06
-3.58654e-06
-3.61721e-06
-3.6473e-06
-3.67681e-06
-3.70575e-06
-3.73412e-06
-3.76194e-06
-3.78922e-06
-3.81595e-06
-3.84214e-06
-3.86781e-06
-3.89295e-06
-3.91758e-06
-3.9417e-06
-3.96532e-06
-3.98844e-06
-4.01107e-06
-4.03322e-06
-4.0549e-06
-4.0761e-06
-4.09685e-06
-4.11713e-06
-4.13697e-06
-4.15636e-06
-4.17532e-06
-4.19384e-06
-4.21194e-06
-4.22962e-06
-4.24689e-06
-4.26376e-06
-4.28023e-06
-4.2963e-06
-4.31199e-06
-4.32729e-06
-4.34222e-06
-4.35678e-06
-4.37099e-06
-4.38483e-06
-4.39833e-06
-4.41148e-06
-4.4243e-06
-4.43678e-06
-4.44894e-06
-4.46078e-06
-4.4723e-06
-4.48352e-06
-4.49443e-06
-4.50505e-06
-4.51538e-06
-4.52543e-06
-4.53519e-06
-4.54468e-06
-4.5539e-06
-4.56286e-06
-4.57157e-06
-4.58002e-06
-4.58823e-06
-4.59619e-06
-4.60392e-06
-4.61142e-06
-4.6187e-06
-4.62575e-06
-4.63259e-06
-4.63922e-06
-4.64565e-06
-4.65187e-06
-4.6579e-06
-4.66374e-06
-4.66939e-06
-4.67486e-06
-4.68016e-06
-4.68528e-06
-4.69023e-06
-4.69502e-06
-4.69965e-06
-4.70413e-06
-4.70845e-06
-4.71263e-06
-4.71667e-06
-4.72056e-06
-4.72432e-06
-4.72795e-06
-4.73146e-06
-4.73484e-06
-4.7381e-06
-4.74124e-06
-4.74428e-06
-4.74718e-06
-4.74998e-06
-4.75269e-06
-4.75531e-06
-4.75784e-06
-4.76026e-06
-4.76259e-06
-4.76482e-06
-4.76696e-06
-4.769e-06
-4.77097e-06
-4.77288e-06
-4.77472e-06
-4.77648e-06
-4.77818e-06
-4.7798e-06
-4.78136e-06
-4.78286e-06
-4.7843e-06
-4.78567e-06
-4.787e-06
-4.78827e-06
-4.78949e-06
-4.79066e-06
-4.79177e-06
-4.79284e-06
-4.79386e-06
-4.79484e-06
-4.79577e-06
-4.79667e-06
-4.79752e-06
-4.79834e-06
-4.79912e-06
-4.79987e-06
-4.80058e-06
-4.80127e-06
-4.80192e-06
-4.80255e-06
-4.80314e-06
-4.80371e-06
-4.80425e-06
-4.80477e-06
-4.80526e-06
-4.80573e-06
-4.80618e-06
-4.8066e-06
-4.80701e-06
-4.8074e-06
-4.80776e-06
-4.80811e-06
-4.80845e-06
-4.80877e-06
-4.80907e-06
-4.80935e-06
-4.80963e-06
-4.80989e-06
-4.81013e-06
-4.81036e-06
-4.81059e-06
-4.8108e-06
-4.81099e-06
-4.81118e-06
-4.81136e-06
-4.81153e-06
-4.81169e-06
-4.81185e-06
-4.81199e-06
-4.81213e-06
-4.81226e-06
-4.81238e-06
-4.8125e-06
-4.81261e-06
-4.81271e-06
-4.81281e-06
-4.8129e-06
-4.81298e-06
-4.81307e-06
-4.81314e-06
-4.81322e-06
-4.81328e-06
-4.81335e-06
-4.81341e-06
-4.81347e-06
-4.81352e-06
-4.81357e-06
-4.81362e-06
-4.81366e-06
-4.8137e-06
-4.81374e-06
-4.81378e-06
-4.81381e-06
-4.81384e-06
-4.81387e-06
-4.8139e-06
-4.81392e-06
-4.81395e-06
-4.81397e-06
-4.81399e-06
-4.814e-06
-4.81402e-06
-4.81404e-06
-4.81405e-06
-4.81406e-06
-4.81407e-06
-4.81408e-06
-4.81409e-06
-4.8141e-06
-4.81411e-06
-4.81412e-06
-4.81412e-06
-4.81413e-06
-4.81413e-06
-4.81414e-06
-4.81414e-06
-4.81414e-06
-4.81414e-06
-4.81414e-06
-4.81414e-06
-4.81414e-06
-4.81414e-06
-4.81414e-06
-4.81414e-06
-4.81414e-06
-4.81413e-06
-4.81413e-06
-4.81413e-06
-4.81413e-06
-4.81412e-06
-4.81412e-06
-4.81411e-06
-4.81411e-06
-4.8141e-06
-4.8141e-06
-4.81409e-06
-4.81409e-06
-4.81409e-06
-4.81408e-06
-4.81408e-06
-4.81407e-06
-4.81407e-06
-4.81406e-06
-4.81405e-06
-4.81405e-06
-4.81404e-06
-4.81403e-06
-4.81403e-06
-4.81402e-06
-4.81402e-06
-4.81401e-06
-4.81401e-06
-4.814e-06
-4.81399e-06
-4.81399e-06
-4.81398e-06
-4.81397e-06
-4.81397e-06
-4.81396e-06
-4.81396e-06
-4.81395e-06
-4.81394e-06
-4.81394e-06
-4.81393e-06
-4.81393e-06
-4.81392e-06
-4.81392e-06
-4.81391e-06
-4.81391e-06
-4.8139e-06
-4.8139e-06
-4.81389e-06
-4.81389e-06
-4.81388e-06
-4.81388e-06
-4.81387e-06
-4.81387e-06
-4.81386e-06
-4.81386e-06
-4.81386e-06
-4.81385e-06
-4.81385e-06
-4.81385e-06
-4.81384e-06
-4.81384e-06
-4.81383e-06
-4.81383e-06
-4.81383e-06
-4.81382e-06
-4.81382e-06
-4.81382e-06
-4.81382e-06
-4.81381e-06
-4.81381e-06
-4.81381e-06
-4.81381e-06
-4.8138e-06
-4.8138e-06
-4.8138e-06
-4.8138e-06
-4.8138e-06
-4.81379e-06
-4.81379e-06
-4.81379e-06
-4.81379e-06
-4.81379e-06
-4.81379e-06
-4.81379e-06
-4.81379e-06
-4.81378e-06
-4.81378e-06
-4.81378e-06
-4.81378e-06
-4.81378e-06
-4.81378e-06
-4.81378e-06
-4.81378e-06
-4.81378e-06
-4.81378e-06
-4.81378e-06
-4.81378e-06
-4.81378e-06
-4.81378e-06
-4.81378e-06
-4.81378e-06
-4.81378e-06
-4.81379e-06
-4.81379e-06
-4.81379e-06
-4.81379e-06
-4.81379e-06
-4.81379e-06
-4.81379e-06
-4.81379e-06
-4.81379e-06
-4.81379e-06
-4.81379e-06
-4.81379e-06
-4.81379e-06
-4.8138e-06
-4.8138e-06
-4.8138e-06
-4.8138e-06
-4.8138e-06
-4.8138e-06
-4.8138e-06
-4.8138e-06
-4.8138e-06
-4.8138e-06
-4.8138e-06
-4.81381e-06
-4.81381e-06
-4.81381e-06
-4.81381e-06
-4.81381e-06
-4.81381e-06
-4.81381e-06
-4.81381e-06
-4.81381e-06
-4.81381e-06
-4.81381e-06
-4.81382e-06
-4.81382e-06
-4.81382e-06
-4.81382e-06
-4.81382e-06
-4.81382e-06
-4.81382e-06
-4.81382e-06
-4.81382e-06
-4.81382e-06
-4.81382e-06
-4.81382e-06
-4.81382e-06
-4.81382e-06
-4.81382e-06
-4.81382e-06
-4.81382e-06
-4.81382e-06
-4.81382e-06
-4.81382e-06
-4.81382e-06
-4.81382e-06
-4.81382e-06
-4.81382e-06
-4.81382e-06
-4.81382e-06
-4.81382e-06
-4.81382e-06
-4.81382e-06
-4.81382e-06
-4.81382e-06
-4.81382e-06
-4.81382e-06
-4.81382e-06
-4.81382e-06
-4.81382e-06
-4.81382e-06
-4.81382e-06
-4.81382e-06
-4.81382e-06
-4.81382e-06
-4.81382e-06
-4.81382e-06
-4.81382e-06
-4.81382e-06
-4.81382e-06
-4.81382e-06
-4.81382e-06
-4.81381e-06
-4.81381e-06
-4.81381e-06
-4.81381e-06
-4.81381e-06
-4.81381e-06
-4.81381e-06
-4.81381e-06
-4.81381e-06
-4.81381e-06
-4.81381e-06
-4.81381e-06
-4.81381e-06
-4.81381e-06
-4.81381e-06
-4.81381e-06
-4.81381e-06
-4.81381e-06
-4.81381e-06
-4.81381e-06
-4.81381e-06
-4.81381e-06
-4.81381e-06
-4.81381e-06
-4.81381e-06
-4.81381e-06
-4.81381e-06
-4.81381e-06
-4.81381e-06
-4.81381e-06
-4.8138e-06
-4.8138e-06
-4.8138e-06
-4.8138e-06
-4.8138e-06
-4.8138e-06
-4.8138e-06
-4.8138e-06
-4.8138e-06
-4.8138e-06
-4.8138e-06
-4.8138e-06
-4.8138e-06
-4.8138e-06
-4.8138e-06
-4.8138e-06
-4.8138e-06
-4.8138e-06
-4.8138e-06
-4.8138e-06
-4.8138e-06
-4.8138e-06
-4.8138e-06
-4.8138e-06
-4.8138e-06
-4.8138e-06
-4.8138e-06
-4.8138e-06
-4.8138e-06
-4.8138e-06
-4.8138e-06
-4.8138e-06
-4.8138e-06
-4.8138e-06
-4.81379e-06
-4.81379e-06
-4.81379e-06
-4.81379e-06
-4.81379e-06
-4.81379e-06
-4.81379e-06
-4.81379e-06
-4.81379e-06
-4.81379e-06
-4.81379e-06
-4.81379e-06
-4.81379e-06
-4.81379e-06
-4.81379e-06
-4.81378e-06
-4.81378e-06
-4.81378e-06
-4.81378e-06
-4.81378e-06
-4.81378e-06
-4.81378e-06
-4.81378e-06
-4.81378e-06
-4.81378e-06
-4.81378e-06
-4.81378e-06
-4.81377e-06
-4.81377e-06
-4.81377e-06
-4.81377e-06
-4.81377e-06
-4.81377e-06
-4.81377e-06
-4.81377e-06
-4.81376e-06
-4.81376e-06
-4.81376e-06
-4.81376e-06
-4.81376e-06
-4.81376e-06
-4.81376e-06
-4.81376e-06
-4.81375e-06
-4.81375e-06
-4.81375e-06
-4.81375e-06
-4.81375e-06
-4.81375e-06
-4.81375e-06
-4.81375e-06
-4.81375e-06
-4.81374e-06
-4.81374e-06
-4.81374e-06
-4.81374e-06
-4.81374e-06
-4.81374e-06
-4.81374e-06
-4.81374e-06
-4.81374e-06
-4.81374e-06
-4.81374e-06
-4.81374e-06
-4.81374e-06
-4.81374e-06
-4.81374e-06
-4.81374e-06
-4.81374e-06
-4.81374e-06
-4.81374e-06
-4.81374e-06
-4.81374e-06
-4.81374e-06
-4.81374e-06
-4.81374e-06
-4.81374e-06
-4.81374e-06
-4.81374e-06
-4.81374e-06
-4.81374e-06
-4.81374e-06
-4.81374e-06
-4.81374e-06
-4.81374e-06
-4.81374e-06
-4.81374e-06
-4.81374e-06
-4.81374e-06
-4.81374e-06
-4.81374e-06
-4.81374e-06
-4.81374e-06
-4.81374e-06
-4.81374e-06
-4.81374e-06
-4.81374e-06
-4.81374e-06
-4.81374e-06
-4.81374e-06
-4.81375e-06
-4.81375e-06
-4.81375e-06
-4.81375e-06
-4.81375e-06
-4.81375e-06
-4.81375e-06
-4.81375e-06
-4.81375e-06
-4.81375e-06
-4.81375e-06
-4.81375e-06
-4.81375e-06
-4.81376e-06
-4.81376e-06
-4.81376e-06
-4.81376e-06
-4.81376e-06
-4.81376e-06
-4.81376e-06
-4.81376e-06
-4.81376e-06
-4.81376e-06
-4.81376e-06
-4.81376e-06
-4.81376e-06
-4.81376e-06
-4.81376e-06
-4.81375e-06
-4.81375e-06
-4.81375e-06
-4.81375e-06
-4.81375e-06
-4.81375e-06
-4.81375e-06
-4.81375e-06
-4.81375e-06
-4.81375e-06
-4.81375e-06
-4.81375e-06
-4.81374e-06
-4.81374e-06
-4.81374e-06
-4.81374e-06
-4.81374e-06
-4.81373e-06
-4.81373e-06
-4.81373e-06
-4.81373e-06
-4.81373e-06
-4.81372e-06
-4.81372e-06
-4.81372e-06
-4.81372e-06
-4.81371e-06
-4.81371e-06
-4.81371e-06
-4.81371e-06
-4.8137e-06
-4.8137e-06
-4.8137e-06
-4.8137e-06
-4.81369e-06
-4.81369e-06
-4.81369e-06
-4.81369e-06
-4.81368e-06
-4.81368e-06
-4.81368e-06
-4.81367e-06
-4.81367e-06
-4.81367e-06
-4.81367e-06
-4.81367e-06
-4.81366e-06
-4.81366e-06
-4.81366e-06
-4.81366e-06
-4.81365e-06
-4.81365e-06
-4.81365e-06
-4.81365e-06
-4.81364e-06
-4.81364e-06
-4.81364e-06
-4.81364e-06
-4.81364e-06
-4.81363e-06
-4.81363e-06
-4.81363e-06
-4.81363e-06
-4.81363e-06
-4.81363e-06
-4.81362e-06
-4.81362e-06
-4.81362e-06
-4.81362e-06
-4.81362e-06
-4.81362e-06
-4.81362e-06
-4.81362e-06
-4.81362e-06
-4.81362e-06
-4.81362e-06
-4.81362e-06
-4.81362e-06
-4.81362e-06
-4.81363e-06
-4.81363e-06
-4.81363e-06
-4.81363e-06
-4.81363e-06
-4.81363e-06
-4.81363e-06
-4.81364e-06
-4.81364e-06
-4.81364e-06
-4.81364e-06
-4.81364e-06
-4.81365e-06
-4.81365e-06
-4.81365e-06
-4.81365e-06
-4.81366e-06
-4.81366e-06
-4.81367e-06
-4.81367e-06
-4.81367e-06
-4.81368e-06
-4.81368e-06
-4.81368e-06
-4.81369e-06
-4.81369e-06
-4.81369e-06
-4.8137e-06
-4.8137e-06
-4.81371e-06
-4.81371e-06
-4.81372e-06
-4.81372e-06
-4.81373e-06
-4.81374e-06
-4.81374e-06
-4.81375e-06
-4.81375e-06
-4.81376e-06
-4.81377e-06
-4.81378e-06
-4.81378e-06
-4.81379e-06
-4.8138e-06
-4.81381e-06
-4.81382e-06
-4.81383e-06
-4.81384e-06
-4.81385e-06
-4.81387e-06
-4.81388e-06
-4.81389e-06
-4.81391e-06
-4.81392e-06
-4.81394e-06
-4.81396e-06
-4.81398e-06
-4.81401e-06
-4.81403e-06
-4.81406e-06
-4.81409e-06
-4.81412e-06
-4.81415e-06
-4.81419e-06
-4.81423e-06
-4.81428e-06
-4.81433e-06
-4.81438e-06
-4.81444e-06
-4.8145e-06
-4.81457e-06
-4.81465e-06
-4.81473e-06
-4.81481e-06
-4.81491e-06
-4.81502e-06
-4.81513e-06
-4.81525e-06
-4.81538e-06
-4.81553e-06
-4.81569e-06
-4.81586e-06
-4.81604e-06
-4.81624e-06
-4.81646e-06
-4.81669e-06
-4.81694e-06
-4.81722e-06
-4.81751e-06
-4.81783e-06
-4.81818e-06
-4.81855e-06
-4.81895e-06
-4.81939e-06
-4.81985e-06
-4.82036e-06
-4.8209e-06
-4.82148e-06
-4.82211e-06
-4.82278e-06
-4.82351e-06
-4.82429e-06
-4.82512e-06
-4.82602e-06
-4.82698e-06
-4.82801e-06
-4.82912e-06
-4.8303e-06
-4.83157e-06
-4.83293e-06
-4.83438e-06
-4.83593e-06
-4.83759e-06
-4.83936e-06
-4.84125e-06
-4.84327e-06
-4.84542e-06
-4.84771e-06
-4.85016e-06
-4.85276e-06
-4.85553e-06
-4.85848e-06
-4.86161e-06
-4.86495e-06
-4.86849e-06
-4.87225e-06
-4.87624e-06
-4.88047e-06
-4.88496e-06
-4.88972e-06
-4.89476e-06
-4.90009e-06
-4.90574e-06
-4.91172e-06
-4.91803e-06
-4.92471e-06
-4.93176e-06
-4.9392e-06
-4.94705e-06
-4.95534e-06
-4.96407e-06
-4.97328e-06
-4.98297e-06
-4.99318e-06
-5.00391e-06
-5.01521e-06
-5.02708e-06
-5.03955e-06
-5.05265e-06
-5.0664e-06
-5.08083e-06
-5.09596e-06
-5.11182e-06
-5.12844e-06
-5.14585e-06
-5.16407e-06
-5.18313e-06
-5.20306e-06
-5.22391e-06
-5.24568e-06
-5.26842e-06
-5.29217e-06
-5.31694e-06
-5.34278e-06
-5.36972e-06
-5.39779e-06
-5.42704e-06
-5.45748e-06
-5.48917e-06
-5.52213e-06
-5.55642e-06
-5.59205e-06
-5.62906e-06
-5.66751e-06
-5.70743e-06
-5.74885e-06
-5.79181e-06
-5.83636e-06
-5.88254e-06
-5.93039e-06
-5.97994e-06
-6.03125e-06
-6.08434e-06
-6.13927e-06
-6.19607e-06
-6.2548e-06
-6.31549e-06
-6.37819e-06
-6.44294e-06
-6.50978e-06
-6.57876e-06
-6.64994e-06
-6.72334e-06
-6.79902e-06
-6.87702e-06
-6.9574e-06
-7.04019e-06
-7.12545e-06
-7.21322e-06
-7.30356e-06
-7.39651e-06
-7.49213e-06
-7.59046e-06
-7.69156e-06
-7.79547e-06
-7.90225e-06
-8.01196e-06
-8.12465e-06
-8.24037e-06
-8.35919e-06
-8.48115e-06
-8.60633e-06
-8.73478e-06
-8.86657e-06
-9.00175e-06
-9.14039e-06
-9.28257e-06
-9.42836e-06
-9.57781e-06
-9.73102e-06
-9.88805e-06
-1.0049e-05
-1.02139e-05
-1.0383e-05
-1.05561e-05
-1.07336e-05
-1.09155e-05
-1.11018e-05
-1.12927e-05
-1.14884e-05
-1.16889e-05
-1.18945e-05
-1.21053e-05
-1.23214e-05
-1.25432e-05
-1.27707e-05
-1.30005e-05
-1.32364e-05
-1.34785e-05
-1.37271e-05
-1.39821e-05
-1.42439e-05
-1.45124e-05
-1.4788e-05
-1.50705e-05
-1.53604e-05
-1.56575e-05
-1.59622e-05
-1.62743e-05
-1.65941e-05
-1.69215e-05
-1.72563e-05
-1.75985e-05
-1.79478e-05
-1.83036e-05
-1.86652e-05
-1.90317e-05
-1.94018e-05
-1.97737e-05
-2.0145e-05
-2.05126e-05
-2.08726e-05
-2.12198e-05
-2.15475e-05
-2.18473e-05
-2.21086e-05
-2.23181e-05
-2.24592e-05
)
;

boundaryField
{
    fixedWall
    {
        type            calculated;
        value           uniform 0;
    }
    outlet
    {
        type            calculated;
        value           uniform -2.25117e-05;
    }
    defaultFaces
    {
        type            empty;
    }
}


// ************************************************************************* //
