/*--------------------------------*- C++ -*----------------------------------*\
| =========                 |                                                 |
| \\      /  F ield         | OpenFOAM: The Open Source CFD Toolbox           |
|  \\    /   O peration     | Version:  2406                                  |
|   \\  /    A nd           | Website:  www.openfoam.com                      |
|    \\/     M anipulation  |                                                 |
\*---------------------------------------------------------------------------*/
FoamFile
{
    version     2.0;
    format      ascii;
    arch        "LSB;label=32;scalar=64";
    class       volScalarField;
    location    "10.8";
    object      Qdot;
}
// * * * * * * * * * * * * * * * * * * * * * * * * * * * * * * * * * * * * * //

dimensions      [1 -1 -3 0 0 0 0];

internalField   nonuniform List<scalar> 
1000
(
-1.06202e-18
-2.54327e-17
-3.29227e-16
-2.72996e-15
7.60884e-09
3.66723e-08
1.33362e-07
4.15443e-07
1.13983e-06
2.80306e-06
6.28464e-06
1.29878e-05
2.505e-05
4.55165e-05
7.8489e-05
0.000129267
0.000204422
0.000311783
0.000460398
0.000660382
0.000922719
0.00125898
0.00168103
0.00220067
0.00282931
0.00357754
0.00445488
0.00546939
0.00662744
0.00793349
0.00938991
0.0109969
0.0127523
0.014652
0.0166895
0.0188565
0.0211426
0.0235359
0.0260232
0.02859
0.0312209
0.0339001
0.0366113
0.0393381
0.0420644
0.0447745
0.0474532
0.0500863
0.0526605
0.0551633
0.0575838
0.059912
0.0621395
0.064259
0.0662645
0.0681515
0.0699164
0.0715571
0.0730724
0.0744623
0.0757277
0.0768702
0.0778925
0.0787978
0.0795898
0.0802728
0.0808514
0.0813309
0.0817163
0.0820131
0.082227
0.0823635
0.0824282
0.0824267
0.0823645
0.0822469
0.0820791
0.0818662
0.081613
0.081324
0.0810037
0.0806562
0.0802854
0.0798949
0.0794883
0.0790686
0.0786388
0.0782017
0.0777598
0.0773152
0.0768702
0.0764267
0.0759862
0.0755504
0.0751206
0.074698
0.0742837
0.0738786
0.0734835
0.0730992
0.072726
0.0723647
0.0720155
0.0716787
0.0713546
0.0710433
0.070745
0.0704596
0.0701871
0.0699276
0.0696808
0.0694467
0.0692251
0.0690157
0.0688185
0.068633
0.0684592
0.0682967
0.0681452
0.0680044
0.0678741
0.0677539
0.0676435
0.0675426
0.0674509
0.0673681
0.0672938
0.0672278
0.0671698
0.0671193
0.0670762
0.0670402
0.0670109
0.0669882
0.0669716
0.0669609
0.0669559
0.0669564
0.066962
0.0669726
0.0669879
0.0670077
0.0670317
0.0670598
0.0670918
0.0671274
0.0671665
0.067209
0.0672546
0.0673031
0.0673545
0.0674086
0.0674652
0.067524
0.0675851
0.0676485
0.0677139
0.0677812
0.06785
0.0679209
0.067993
0.0680667
0.0681419
0.0682183
0.0682963
0.0683754
0.0684557
0.0685369
0.0686192
0.0687024
0.0687865
0.0688714
0.0689571
0.0690436
0.0691307
0.0692185
0.0693069
0.0693955
0.069485
0.069575
0.0696654
0.0697563
0.0698476
0.0699393
0.0700314
0.0701238
0.0702166
0.0703097
0.0704032
0.0704969
0.0705909
0.0706852
0.0707797
0.0708744
0.0709694
0.0710647
0.0711601
0.0712558
0.0713516
0.0714477
0.0715439
0.0716403
0.0717369
0.0718337
0.0719307
0.0720278
0.0721251
0.0722226
0.0723202
0.0724177
0.0725156
0.0726138
0.072712
0.0728104
0.072909
0.0730077
0.0731065
0.0732056
0.0733047
0.073404
0.0735035
0.0736031
0.0737029
0.0738028
0.0739029
0.0740032
0.0741036
0.0742041
0.0743048
0.0744057
0.0745067
0.0746079
0.0747093
0.0748108
0.0749125
0.0750143
0.0751163
0.0752185
0.0753208
0.0754233
0.075526
0.0756288
0.0757318
0.075835
0.0759384
0.0760419
0.0761456
0.0762495
0.0763536
0.0764573
0.0765613
0.076666
0.0767708
0.0768758
0.076981
0.0770864
0.0771919
0.0772976
0.0774035
0.0775096
0.0776159
0.0777223
0.0778289
0.0779357
0.0780427
0.0781499
0.0782573
0.0783648
0.0784726
0.0785805
0.0786886
0.078797
0.0789055
0.0790142
0.0791231
0.0792322
0.0793415
0.079451
0.0795607
0.0796706
0.0797808
0.0798911
0.0800016
0.0801123
0.0802232
0.0803344
0.0804457
0.0805572
0.080669
0.0807809
0.0808931
0.0810055
0.0811181
0.0812309
0.0813439
0.0814571
0.0815706
0.0816842
0.0817981
0.081912
0.0820257
0.0821403
0.082255
0.08237
0.0824852
0.0826006
0.0827163
0.0828321
0.0829482
0.0830646
0.0831811
0.0832979
0.0834149
0.0835322
0.0836496
0.0837673
0.0838853
0.0840035
0.0841219
0.0842405
0.0843594
0.0844785
0.0845979
0.0847175
0.0848373
0.0849574
0.0850778
0.0851983
0.0853192
0.0854402
0.0855616
0.0856831
0.0858049
0.085927
0.0860493
0.0861719
0.0862947
0.0864178
0.0865412
0.0866648
0.0867886
0.0869127
0.0870371
0.0871618
0.0872867
0.0874118
0.0875373
0.087663
0.0877889
0.0879152
0.0880417
0.0881685
0.0882955
0.0884228
0.0885504
0.0886783
0.0888065
0.0889349
0.0890636
0.0891926
0.0893219
0.0894514
0.0895813
0.0897114
0.0898418
0.0899725
0.0901035
0.0902348
0.0903663
0.0904982
0.0906303
0.0907628
0.0908955
0.0910286
0.0911619
0.0912955
0.0914294
0.0915636
0.0916982
0.091833
0.0919681
0.0921035
0.0922392
0.0923753
0.0925116
0.0926482
0.0927852
0.0929224
0.09306
0.0931979
0.0933361
0.0934745
0.0936134
0.0937525
0.0938919
0.0940316
0.0941717
0.0943121
0.0944528
0.0945938
0.0947351
0.0948768
0.0950187
0.095161
0.0953036
0.0954465
0.0955898
0.0957334
0.0958773
0.0960215
0.0961661
0.0963109
0.0964561
0.0966017
0.0967475
0.0968937
0.0970402
0.0971871
0.0973343
0.0974818
0.0976297
0.0977779
0.0979264
0.0980752
0.0982245
0.098374
0.0985239
0.0986741
0.0988246
0.0989755
0.0991268
0.0992784
0.0994303
0.0995826
0.0997352
0.0998882
0.100042
0.100195
0.100349
0.100504
0.100658
0.100813
0.100969
0.101125
0.101281
0.101437
0.101594
0.101751
0.101909
0.102067
0.102225
0.102384
0.102543
0.102702
0.102862
0.103022
0.103183
0.103344
0.103505
0.103667
0.103829
0.103991
0.104154
0.104317
0.104481
0.104645
0.104809
0.104974
0.105139
0.105304
0.10547
0.105636
0.105803
0.10597
0.106137
0.106305
0.106473
0.106642
0.106811
0.106981
0.10715
0.107321
0.107491
0.107662
0.107834
0.108006
0.108178
0.108351
0.108524
0.108697
0.108871
0.109046
0.109221
0.109396
0.109571
0.109747
0.109924
0.110101
0.110278
0.110456
0.110634
0.110813
0.110992
0.111171
0.111351
0.111532
0.111713
0.111894
0.112076
0.112258
0.11244
0.112623
0.112807
0.112991
0.113175
0.11336
0.113545
0.113731
0.113917
0.114104
0.114291
0.114479
0.114667
0.114856
0.115045
0.115234
0.115424
0.115614
0.115805
0.115997
0.116188
0.116381
0.116573
0.116767
0.11696
0.117155
0.117349
0.117545
0.11774
0.117936
0.118133
0.11833
0.118528
0.118726
0.118925
0.119124
0.119323
0.119523
0.119724
0.119925
0.120127
0.120329
0.120531
0.120735
0.120938
0.121142
0.121347
0.121552
0.121758
0.121964
0.122171
0.122378
0.122586
0.122794
0.123003
0.123212
0.123422
0.123633
0.123844
0.124055
0.124267
0.12448
0.124693
0.124907
0.125121
0.125336
0.125551
0.125767
0.125983
0.1262
0.126418
0.126636
0.126854
0.127073
0.127293
0.127514
0.127734
0.127956
0.128178
0.128401
0.128624
0.128848
0.129072
0.129297
0.129523
0.129749
0.129975
0.130203
0.130431
0.130659
0.130888
0.131118
0.131348
0.131579
0.131811
0.132043
0.132276
0.132509
0.132743
0.132978
0.133213
0.133449
0.133686
0.133923
0.134161
0.134399
0.134638
0.134878
0.135119
0.13536
0.135601
0.135844
0.136086
0.136328
0.136573
0.136818
0.137063
0.13731
0.137557
0.137804
0.138053
0.138302
0.138552
0.138802
0.139053
0.139305
0.139557
0.139811
0.140064
0.140319
0.140574
0.14083
0.141087
0.141344
0.141602
0.141861
0.142121
0.142381
0.142642
0.142904
0.143166
0.143429
0.143693
0.143958
0.144223
0.144489
0.144756
0.145023
0.145292
0.145561
0.14583
0.146101
0.146372
0.146644
0.146917
0.147191
0.147465
0.14774
0.148016
0.148293
0.14857
0.148848
0.149127
0.149407
0.149687
0.149968
0.15025
0.150531
0.150815
0.151099
0.151384
0.15167
0.151957
0.152244
0.152533
0.152822
0.153112
0.153402
0.153694
0.153986
0.15428
0.154574
0.154868
0.155164
0.155461
0.155758
0.156056
0.156355
0.156655
0.156955
0.157257
0.157559
0.157863
0.158167
0.158472
0.158778
0.159084
0.159392
0.1597
0.16001
0.16032
0.160631
0.160943
0.161256
0.16157
0.161884
0.1622
0.162516
0.162834
0.163152
0.163471
0.163792
0.164113
0.164435
0.164758
0.165082
0.165407
0.165733
0.16606
0.166388
0.166717
0.167046
0.167377
0.167709
0.168042
0.168376
0.168711
0.169047
0.169383
0.169721
0.17006
0.1704
0.170741
0.171083
0.171427
0.171771
0.172115
0.17246
0.172807
0.173156
0.173505
0.173856
0.174208
0.174561
0.174914
0.175268
0.175624
0.17598
0.176339
0.176698
0.177058
0.17742
0.177783
0.178146
0.178511
0.178878
0.179245
0.179613
0.179983
0.180354
0.180725
0.181098
0.181473
0.181848
0.182225
0.182602
0.182981
0.183361
0.183743
0.184125
0.184509
0.184893
0.185279
0.185667
0.186055
0.186445
0.186836
0.187228
0.187621
0.188015
0.188411
0.188808
0.189206
0.189605
0.190006
0.190408
0.19081
0.191215
0.19162
0.192027
0.192435
0.192844
0.193254
0.193666
0.194078
0.194492
0.194908
0.195324
0.195742
0.196161
0.196581
0.197003
0.197425
0.197849
0.198275
0.198701
0.199129
0.199558
0.199989
0.20042
0.200853
0.201288
0.201723
0.202161
0.202599
0.203039
0.20348
0.203923
0.204368
0.204814
0.205261
0.20571
0.206161
0.206614
0.207068
0.207525
0.207983
0.208444
0.208906
0.209371
0.209839
0.210309
0.210782
0.211258
0.211737
0.212219
0.212705
0.213195
0.213689
0.214187
0.214691
0.2152
0.215714
0.216234
0.216762
0.217296
0.217838
0.218388
0.218948
0.219518
0.220098
0.22069
0.221294
0.221912
0.222545
0.223194
0.22386
0.224545
0.225249
0.225976
0.226726
0.227502
0.228304
0.229136
0.23
0.230898
0.231832
0.232806
0.233822
0.234883
0.235992
0.237153
0.238369
0.239644
0.240981
0.242386
0.243862
0.245414
0.247047
0.248765
0.250573
0.252477
0.254482
0.256594
0.258819
0.261162
0.263629
0.266227
0.268962
0.27184
0.274868
0.278051
0.281395
0.284907
0.288592
0.292456
0.296504
0.30074
0.305169
0.309794
0.314617
0.31964
0.324863
0.330286
0.335905
0.341717
0.347716
0.353893
0.360238
0.366737
0.373374
0.380128
0.386978
0.393895
0.400849
0.407803
0.414717
0.421547
0.42824
0.434743
0.440994
0.446926
0.452469
0.457547
0.462078
0.465978
0.46916
0.471533
0.473005
0.473485
0.472884
0.471114
0.468094
0.463751
0.458019
0.450846
0.442195
0.432044
0.420392
0.407259
0.392686
0.376742
0.359518
0.341135
0.321735
0.301486
0.280578
0.259218
0.237628
0.21604
0.194688
0.173807
0.15362
0.134335
0.11614
0.0991936
0.083623
0.0696002
0.0571349
0.0460574
0.0364932
0.0283829
0.0216367
0.0161398
0.0117594
0.00835161
0.00576845
0.00386497
0.00250485
0.00156518
0.000939515
0.000539509
0.000294984
0.000152745
7.44449e-05
3.39094e-05
1.43168e-05
5.55153e-06
1.95453e-06
6.16747e-07
1.71667e-07
4.12952e-08
7.74151e-09
1.6399e-09
4.75454e-10
9.96409e-14
-2.90659e-18
6.55526e-11
0
0
)
;

boundaryField
{
    fixedWall
    {
        type            calculated;
        value           uniform 0;
    }
    outlet
    {
        type            calculated;
        value           uniform 0;
    }
    defaultFaces
    {
        type            empty;
    }
}


// ************************************************************************* //
