/*--------------------------------*- C++ -*----------------------------------*\
| =========                 |                                                 |
| \\      /  F ield         | OpenFOAM: The Open Source CFD Toolbox           |
|  \\    /   O peration     | Version:  2406                                  |
|   \\  /    A nd           | Website:  www.openfoam.com                      |
|    \\/     M anipulation  |                                                 |
\*---------------------------------------------------------------------------*/
FoamFile
{
    version     2.0;
    format      ascii;
    arch        "LSB;label=32;scalar=64";
    class       volScalarField;
    location    "10.8";
    object      T;
}
// * * * * * * * * * * * * * * * * * * * * * * * * * * * * * * * * * * * * * //

dimensions      [0 0 0 1 0 0 0];

internalField   nonuniform List<scalar> 
1000
(
305.361
328.192
349.368
369.149
387.731
405.265
421.875
437.658
452.697
467.061
480.808
493.989
506.648
518.821
530.544
541.844
552.749
563.281
573.463
583.313
592.848
602.084
611.036
619.716
628.137
636.311
644.246
651.953
659.441
666.719
673.793
680.671
687.36
693.867
700.197
706.357
712.351
718.185
723.863
729.391
734.773
740.013
745.114
750.081
754.918
759.628
764.214
768.68
773.029
777.264
781.387
785.403
789.312
793.119
796.825
800.433
803.945
807.364
810.692
813.932
817.085
820.153
823.138
826.043
828.869
831.619
834.293
836.895
839.424
841.884
844.276
846.602
848.862
851.059
853.194
855.269
857.285
859.244
861.146
862.993
864.788
866.529
868.22
869.862
871.455
873.001
874.5
875.955
877.366
878.735
880.061
881.348
882.595
883.803
884.974
886.108
887.207
888.271
889.301
890.298
891.264
892.198
893.103
893.977
894.824
895.642
896.433
897.198
897.937
898.652
899.342
900.009
900.653
901.275
901.875
902.455
903.014
903.553
904.074
904.576
905.06
905.527
905.977
906.41
906.828
907.231
907.618
907.991
908.351
908.696
909.029
909.349
909.657
909.953
910.238
910.512
910.775
911.028
911.27
911.504
911.728
911.942
912.149
912.347
912.537
912.719
912.893
913.061
913.221
913.375
913.523
913.664
913.799
913.928
914.052
914.17
914.283
914.391
914.495
914.594
914.689
914.779
914.866
914.948
915.027
915.102
915.174
915.242
915.308
915.37
915.43
915.486
915.54
915.592
915.641
915.687
915.732
915.774
915.814
915.852
915.888
915.923
915.956
915.987
916.016
916.045
916.071
916.096
916.12
916.143
916.165
916.185
916.204
916.222
916.24
916.256
916.272
916.286
916.3
916.313
916.325
916.337
916.348
916.358
916.368
916.377
916.386
916.394
916.401
916.409
916.415
916.422
916.427
916.433
916.438
916.443
916.448
916.452
916.456
916.459
916.463
916.466
916.469
916.472
916.474
916.477
916.479
916.481
916.483
916.484
916.486
916.487
916.489
916.49
916.491
916.492
916.493
916.494
916.494
916.495
916.495
916.496
916.496
916.497
916.497
916.497
916.498
916.498
916.498
916.498
916.498
916.498
916.498
916.498
916.498
916.498
916.498
916.498
916.498
916.497
916.497
916.497
916.497
916.497
916.497
916.496
916.496
916.496
916.496
916.496
916.495
916.495
916.495
916.495
916.495
916.494
916.494
916.494
916.494
916.494
916.493
916.493
916.493
916.493
916.493
916.493
916.493
916.492
916.492
916.492
916.492
916.492
916.492
916.492
916.492
916.492
916.492
916.492
916.492
916.492
916.492
916.492
916.492
916.492
916.492
916.492
916.492
916.492
916.492
916.492
916.492
916.492
916.492
916.492
916.493
916.493
916.493
916.493
916.493
916.493
916.493
916.493
916.494
916.494
916.494
916.494
916.494
916.495
916.495
916.495
916.495
916.495
916.496
916.496
916.496
916.496
916.496
916.497
916.497
916.497
916.497
916.498
916.498
916.498
916.498
916.499
916.499
916.499
916.499
916.5
916.5
916.5
916.5
916.501
916.501
916.501
916.501
916.502
916.502
916.502
916.502
916.502
916.503
916.503
916.503
916.503
916.504
916.504
916.504
916.504
916.505
916.505
916.505
916.505
916.505
916.506
916.506
916.506
916.506
916.506
916.507
916.507
916.507
916.507
916.507
916.508
916.508
916.508
916.508
916.508
916.508
916.509
916.509
916.509
916.509
916.509
916.509
916.509
916.51
916.51
916.51
916.51
916.51
916.51
916.51
916.51
916.51
916.511
916.511
916.511
916.511
916.511
916.511
916.511
916.511
916.511
916.511
916.511
916.512
916.512
916.512
916.512
916.512
916.512
916.512
916.512
916.512
916.512
916.512
916.512
916.512
916.512
916.512
916.513
916.513
916.513
916.513
916.513
916.513
916.513
916.513
916.513
916.513
916.513
916.513
916.513
916.513
916.513
916.513
916.513
916.513
916.513
916.513
916.513
916.514
916.514
916.514
916.514
916.514
916.514
916.514
916.514
916.514
916.514
916.514
916.514
916.514
916.514
916.514
916.514
916.514
916.514
916.514
916.514
916.514
916.514
916.514
916.514
916.514
916.514
916.514
916.514
916.515
916.515
916.515
916.515
916.515
916.515
916.515
916.515
916.515
916.515
916.515
916.515
916.515
916.515
916.515
916.515
916.515
916.515
916.515
916.515
916.515
916.515
916.515
916.515
916.515
916.515
916.515
916.515
916.515
916.515
916.515
916.515
916.515
916.515
916.515
916.515
916.515
916.515
916.515
916.515
916.515
916.515
916.515
916.515
916.515
916.515
916.515
916.515
916.515
916.515
916.515
916.515
916.515
916.515
916.515
916.515
916.515
916.515
916.516
916.516
916.516
916.516
916.516
916.516
916.516
916.516
916.516
916.516
916.516
916.516
916.516
916.516
916.516
916.516
916.516
916.516
916.516
916.516
916.516
916.516
916.516
916.516
916.516
916.516
916.516
916.516
916.516
916.516
916.516
916.516
916.517
916.517
916.517
916.517
916.517
916.517
916.517
916.517
916.517
916.517
916.517
916.517
916.517
916.517
916.517
916.517
916.517
916.517
916.517
916.517
916.517
916.518
916.518
916.518
916.518
916.518
916.518
916.518
916.518
916.518
916.518
916.518
916.518
916.518
916.518
916.518
916.518
916.518
916.518
916.518
916.518
916.518
916.518
916.518
916.518
916.518
916.518
916.518
916.518
916.518
916.518
916.518
916.518
916.518
916.518
916.518
916.518
916.518
916.518
916.518
916.518
916.518
916.518
916.518
916.518
916.518
916.518
916.518
916.518
916.518
916.518
916.518
916.518
916.518
916.518
916.518
916.518
916.518
916.518
916.518
916.518
916.518
916.518
916.517
916.517
916.517
916.517
916.517
916.517
916.517
916.517
916.517
916.517
916.517
916.517
916.517
916.517
916.517
916.517
916.517
916.517
916.517
916.517
916.517
916.517
916.517
916.517
916.517
916.517
916.517
916.517
916.517
916.517
916.517
916.517
916.517
916.517
916.517
916.517
916.517
916.517
916.517
916.517
916.518
916.518
916.518
916.518
916.518
916.518
916.518
916.518
916.518
916.518
916.518
916.518
916.518
916.518
916.519
916.519
916.519
916.519
916.519
916.519
916.519
916.519
916.519
916.519
916.519
916.52
916.52
916.52
916.52
916.52
916.52
916.52
916.52
916.52
916.52
916.52
916.52
916.52
916.521
916.521
916.521
916.521
916.521
916.521
916.521
916.521
916.521
916.521
916.521
916.521
916.521
916.521
916.521
916.521
916.521
916.521
916.521
916.521
916.521
916.521
916.521
916.521
916.521
916.521
916.52
916.52
916.52
916.52
916.52
916.52
916.52
916.52
916.52
916.519
916.519
916.519
916.519
916.519
916.518
916.518
916.518
916.518
916.517
916.517
916.517
916.517
916.516
916.516
916.516
916.515
916.515
916.514
916.514
916.513
916.513
916.512
916.512
916.511
916.51
916.51
916.509
916.508
916.507
916.506
916.505
916.504
916.503
916.501
916.5
916.499
916.497
916.495
916.493
916.491
916.489
916.486
916.484
916.481
916.478
916.475
916.471
916.467
916.463
916.459
916.454
916.448
916.443
916.437
916.43
916.423
916.415
916.407
916.398
916.388
916.377
916.366
916.354
916.341
916.326
916.311
916.295
916.277
916.258
916.238
916.216
916.192
916.167
916.14
916.111
916.08
916.047
916.011
915.973
915.932
915.889
915.842
915.792
915.739
915.682
915.622
915.557
915.488
915.415
915.337
915.254
915.166
915.072
914.972
914.866
914.754
914.635
914.508
914.374
914.232
914.082
913.923
913.754
913.576
913.388
913.19
912.98
912.759
912.525
912.279
912.02
911.747
911.46
911.158
910.84
910.506
910.156
909.787
909.401
908.995
908.57
908.125
907.658
907.17
906.658
906.124
905.565
904.98
904.37
903.733
903.068
902.375
901.651
900.898
900.112
899.295
898.444
897.558
896.637
895.679
894.684
893.65
892.576
891.461
890.305
889.105
887.86
886.57
885.233
883.848
882.413
880.928
879.39
877.799
876.153
874.45
872.689
870.868
868.987
867.042
865.033
862.957
860.812
858.598
856.311
853.95
851.512
848.995
846.397
843.715
840.947
838.09
835.141
832.098
828.956
825.713
822.366
818.91
815.342
811.658
807.854
803.925
799.867
795.675
791.343
786.866
782.239
777.455
772.508
767.392
762.099
756.621
750.952
745.083
739.004
732.708
726.184
719.422
712.474
705.286
697.753
689.941
681.837
673.428
664.702
655.646
646.245
636.487
626.358
615.844
604.933
593.611
581.868
569.691
557.071
544.001
530.476
516.492
502.051
487.157
471.82
456.055
439.885
423.338
406.453
389.277
371.868
354.299
336.654
319.034
301.561
)
;

boundaryField
{
    fixedWall
    {
        type            fixedValue;
        value           uniform 293;
    }
    outlet
    {
        type            inletOutlet;
        inletValue      uniform 293;
        value           uniform 293;
    }
    defaultFaces
    {
        type            empty;
    }
}


// ************************************************************************* //
