/*--------------------------------*- C++ -*----------------------------------*\
| =========                 |                                                 |
| \\      /  F ield         | OpenFOAM: The Open Source CFD Toolbox           |
|  \\    /   O peration     | Version:  2406                                  |
|   \\  /    A nd           | Website:  www.openfoam.com                      |
|    \\/     M anipulation  |                                                 |
\*---------------------------------------------------------------------------*/
FoamFile
{
    version     2.0;
    format      ascii;
    arch        "LSB;label=32;scalar=64";
    class       volVectorField;
    location    "10.8";
    object      U;
}
// * * * * * * * * * * * * * * * * * * * * * * * * * * * * * * * * * * * * * //

dimensions      [0 1 -1 0 0 0 0];

internalField   nonuniform List<vector> 
1000
(
(-8.78042e-07 0 0)
(-4.17269e-06 0 0)
(-1.06867e-05 0 0)
(-1.967e-05 0 0)
(-3.05565e-05 0 0)
(-4.30054e-05 0 0)
(-5.67773e-05 0 0)
(-7.16792e-05 0 0)
(-8.75457e-05 0 0)
(-0.00010424 0 0)
(-0.000121646 0 0)
(-0.000139666 0 0)
(-0.000158216 0 0)
(-0.000177221 0 0)
(-0.000196619 0 0)
(-0.000216354 0 0)
(-0.000236375 0 0)
(-0.000256639 0 0)
(-0.000277105 0 0)
(-0.00029774 0 0)
(-0.000318509 0 0)
(-0.000339384 0 0)
(-0.000360338 0 0)
(-0.000381348 0 0)
(-0.000402391 0 0)
(-0.000423447 0 0)
(-0.000444496 0 0)
(-0.000465521 0 0)
(-0.000486508 0 0)
(-0.000507439 0 0)
(-0.000528302 0 0)
(-0.000549084 0 0)
(-0.000569773 0 0)
(-0.000590357 0 0)
(-0.000610827 0 0)
(-0.000631172 0 0)
(-0.000651384 0 0)
(-0.000671455 0 0)
(-0.000691375 0 0)
(-0.000711138 0 0)
(-0.000730738 0 0)
(-0.000750167 0 0)
(-0.000769419 0 0)
(-0.00078849 0 0)
(-0.000807373 0 0)
(-0.000826064 0 0)
(-0.000844559 0 0)
(-0.000862853 0 0)
(-0.000880943 0 0)
(-0.000898825 0 0)
(-0.000916495 0 0)
(-0.000933951 0 0)
(-0.000951191 0 0)
(-0.000968211 0 0)
(-0.000985009 0 0)
(-0.00100158 0 0)
(-0.00101793 0 0)
(-0.00103406 0 0)
(-0.00104995 0 0)
(-0.00106562 0 0)
(-0.00108105 0 0)
(-0.00109625 0 0)
(-0.00111123 0 0)
(-0.00112597 0 0)
(-0.00114047 0 0)
(-0.00115475 0 0)
(-0.00116879 0 0)
(-0.0011826 0 0)
(-0.00119618 0 0)
(-0.00120952 0 0)
(-0.00122264 0 0)
(-0.00123552 0 0)
(-0.00124818 0 0)
(-0.00126061 0 0)
(-0.00127281 0 0)
(-0.00128478 0 0)
(-0.00129653 0 0)
(-0.00130805 0 0)
(-0.00131936 0 0)
(-0.00133044 0 0)
(-0.0013413 0 0)
(-0.00135195 0 0)
(-0.00136238 0 0)
(-0.00137259 0 0)
(-0.0013826 0 0)
(-0.00139239 0 0)
(-0.00140198 0 0)
(-0.00141136 0 0)
(-0.00142054 0 0)
(-0.00142952 0 0)
(-0.00143829 0 0)
(-0.00144687 0 0)
(-0.00145526 0 0)
(-0.00146346 0 0)
(-0.00147146 0 0)
(-0.00147928 0 0)
(-0.00148691 0 0)
(-0.00149437 0 0)
(-0.00150164 0 0)
(-0.00150873 0 0)
(-0.00151566 0 0)
(-0.00152241 0 0)
(-0.00152899 0 0)
(-0.0015354 0 0)
(-0.00154166 0 0)
(-0.00154775 0 0)
(-0.00155368 0 0)
(-0.00155946 0 0)
(-0.00156508 0 0)
(-0.00157056 0 0)
(-0.00157588 0 0)
(-0.00158107 0 0)
(-0.00158611 0 0)
(-0.00159101 0 0)
(-0.00159577 0 0)
(-0.00160041 0 0)
(-0.0016049 0 0)
(-0.00160928 0 0)
(-0.00161352 0 0)
(-0.00161764 0 0)
(-0.00162164 0 0)
(-0.00162553 0 0)
(-0.0016293 0 0)
(-0.00163295 0 0)
(-0.00163649 0 0)
(-0.00163993 0 0)
(-0.00164326 0 0)
(-0.00164649 0 0)
(-0.00164961 0 0)
(-0.00165264 0 0)
(-0.00165558 0 0)
(-0.00165841 0 0)
(-0.00166116 0 0)
(-0.00166382 0 0)
(-0.00166639 0 0)
(-0.00166888 0 0)
(-0.00167129 0 0)
(-0.00167361 0 0)
(-0.00167586 0 0)
(-0.00167803 0 0)
(-0.00168012 0 0)
(-0.00168215 0 0)
(-0.0016841 0 0)
(-0.00168599 0 0)
(-0.00168781 0 0)
(-0.00168957 0 0)
(-0.00169126 0 0)
(-0.00169289 0 0)
(-0.00169447 0 0)
(-0.00169599 0 0)
(-0.00169745 0 0)
(-0.00169886 0 0)
(-0.00170022 0 0)
(-0.00170153 0 0)
(-0.00170278 0 0)
(-0.00170398 0 0)
(-0.00170515 0 0)
(-0.00170628 0 0)
(-0.00170736 0 0)
(-0.0017084 0 0)
(-0.00170939 0 0)
(-0.00171034 0 0)
(-0.00171125 0 0)
(-0.00171213 0 0)
(-0.00171297 0 0)
(-0.00171378 0 0)
(-0.00171456 0 0)
(-0.00171531 0 0)
(-0.00171603 0 0)
(-0.00171672 0 0)
(-0.00171738 0 0)
(-0.00171801 0 0)
(-0.00171862 0 0)
(-0.0017192 0 0)
(-0.00171976 0 0)
(-0.00172029 0 0)
(-0.00172081 0 0)
(-0.0017213 0 0)
(-0.00172176 0 0)
(-0.00172221 0 0)
(-0.00172264 0 0)
(-0.00172304 0 0)
(-0.00172343 0 0)
(-0.00172381 0 0)
(-0.00172416 0 0)
(-0.0017245 0 0)
(-0.00172483 0 0)
(-0.00172514 0 0)
(-0.00172544 0 0)
(-0.00172572 0 0)
(-0.00172599 0 0)
(-0.00172625 0 0)
(-0.00172649 0 0)
(-0.00172672 0 0)
(-0.00172695 0 0)
(-0.00172716 0 0)
(-0.00172736 0 0)
(-0.00172755 0 0)
(-0.00172774 0 0)
(-0.00172791 0 0)
(-0.00172808 0 0)
(-0.00172823 0 0)
(-0.00172838 0 0)
(-0.00172853 0 0)
(-0.00172866 0 0)
(-0.00172879 0 0)
(-0.00172891 0 0)
(-0.00172903 0 0)
(-0.00172914 0 0)
(-0.00172924 0 0)
(-0.00172934 0 0)
(-0.00172943 0 0)
(-0.00172952 0 0)
(-0.00172961 0 0)
(-0.00172969 0 0)
(-0.00172976 0 0)
(-0.00172983 0 0)
(-0.0017299 0 0)
(-0.00172996 0 0)
(-0.00173003 0 0)
(-0.00173008 0 0)
(-0.00173014 0 0)
(-0.00173019 0 0)
(-0.00173023 0 0)
(-0.00173028 0 0)
(-0.00173032 0 0)
(-0.00173036 0 0)
(-0.0017304 0 0)
(-0.00173044 0 0)
(-0.00173047 0 0)
(-0.0017305 0 0)
(-0.00173053 0 0)
(-0.00173056 0 0)
(-0.00173058 0 0)
(-0.00173061 0 0)
(-0.00173063 0 0)
(-0.00173065 0 0)
(-0.00173067 0 0)
(-0.00173069 0 0)
(-0.00173071 0 0)
(-0.00173073 0 0)
(-0.00173074 0 0)
(-0.00173076 0 0)
(-0.00173077 0 0)
(-0.00173078 0 0)
(-0.00173079 0 0)
(-0.0017308 0 0)
(-0.00173081 0 0)
(-0.00173082 0 0)
(-0.00173083 0 0)
(-0.00173084 0 0)
(-0.00173084 0 0)
(-0.00173085 0 0)
(-0.00173086 0 0)
(-0.00173086 0 0)
(-0.00173086 0 0)
(-0.00173087 0 0)
(-0.00173087 0 0)
(-0.00173088 0 0)
(-0.00173088 0 0)
(-0.00173088 0 0)
(-0.00173088 0 0)
(-0.00173088 0 0)
(-0.00173089 0 0)
(-0.00173089 0 0)
(-0.00173089 0 0)
(-0.00173089 0 0)
(-0.00173089 0 0)
(-0.00173089 0 0)
(-0.00173089 0 0)
(-0.00173089 0 0)
(-0.00173089 0 0)
(-0.00173089 0 0)
(-0.00173089 0 0)
(-0.00173089 0 0)
(-0.00173089 0 0)
(-0.00173089 0 0)
(-0.00173088 0 0)
(-0.00173088 0 0)
(-0.00173088 0 0)
(-0.00173088 0 0)
(-0.00173088 0 0)
(-0.00173088 0 0)
(-0.00173088 0 0)
(-0.00173087 0 0)
(-0.00173087 0 0)
(-0.00173087 0 0)
(-0.00173087 0 0)
(-0.00173087 0 0)
(-0.00173086 0 0)
(-0.00173086 0 0)
(-0.00173086 0 0)
(-0.00173086 0 0)
(-0.00173086 0 0)
(-0.00173085 0 0)
(-0.00173085 0 0)
(-0.00173085 0 0)
(-0.00173084 0 0)
(-0.00173085 0 0)
(-0.00173084 0 0)
(-0.00173084 0 0)
(-0.00173084 0 0)
(-0.00173084 0 0)
(-0.00173083 0 0)
(-0.00173083 0 0)
(-0.00173083 0 0)
(-0.00173083 0 0)
(-0.00173083 0 0)
(-0.00173082 0 0)
(-0.00173082 0 0)
(-0.00173082 0 0)
(-0.00173081 0 0)
(-0.00173082 0 0)
(-0.00173081 0 0)
(-0.00173081 0 0)
(-0.00173081 0 0)
(-0.00173081 0 0)
(-0.00173081 0 0)
(-0.0017308 0 0)
(-0.0017308 0 0)
(-0.0017308 0 0)
(-0.0017308 0 0)
(-0.0017308 0 0)
(-0.0017308 0 0)
(-0.0017308 0 0)
(-0.00173079 0 0)
(-0.00173079 0 0)
(-0.00173079 0 0)
(-0.00173079 0 0)
(-0.00173079 0 0)
(-0.00173079 0 0)
(-0.00173079 0 0)
(-0.00173079 0 0)
(-0.00173079 0 0)
(-0.00173078 0 0)
(-0.00173079 0 0)
(-0.00173078 0 0)
(-0.00173078 0 0)
(-0.00173078 0 0)
(-0.00173078 0 0)
(-0.00173078 0 0)
(-0.00173078 0 0)
(-0.00173078 0 0)
(-0.00173078 0 0)
(-0.00173078 0 0)
(-0.00173078 0 0)
(-0.00173078 0 0)
(-0.00173077 0 0)
(-0.00173078 0 0)
(-0.00173077 0 0)
(-0.00173078 0 0)
(-0.00173078 0 0)
(-0.00173077 0 0)
(-0.00173078 0 0)
(-0.00173077 0 0)
(-0.00173078 0 0)
(-0.00173077 0 0)
(-0.00173078 0 0)
(-0.00173077 0 0)
(-0.00173078 0 0)
(-0.00173078 0 0)
(-0.00173078 0 0)
(-0.00173078 0 0)
(-0.00173078 0 0)
(-0.00173078 0 0)
(-0.00173078 0 0)
(-0.00173078 0 0)
(-0.00173078 0 0)
(-0.00173078 0 0)
(-0.00173078 0 0)
(-0.00173078 0 0)
(-0.00173078 0 0)
(-0.00173078 0 0)
(-0.00173078 0 0)
(-0.00173078 0 0)
(-0.00173078 0 0)
(-0.00173078 0 0)
(-0.00173078 0 0)
(-0.00173079 0 0)
(-0.00173078 0 0)
(-0.00173079 0 0)
(-0.00173079 0 0)
(-0.00173079 0 0)
(-0.00173079 0 0)
(-0.00173079 0 0)
(-0.00173079 0 0)
(-0.00173079 0 0)
(-0.00173079 0 0)
(-0.00173079 0 0)
(-0.00173079 0 0)
(-0.00173079 0 0)
(-0.00173079 0 0)
(-0.00173079 0 0)
(-0.00173079 0 0)
(-0.00173079 0 0)
(-0.00173079 0 0)
(-0.0017308 0 0)
(-0.00173079 0 0)
(-0.0017308 0 0)
(-0.0017308 0 0)
(-0.0017308 0 0)
(-0.0017308 0 0)
(-0.0017308 0 0)
(-0.0017308 0 0)
(-0.0017308 0 0)
(-0.0017308 0 0)
(-0.0017308 0 0)
(-0.0017308 0 0)
(-0.0017308 0 0)
(-0.0017308 0 0)
(-0.0017308 0 0)
(-0.0017308 0 0)
(-0.0017308 0 0)
(-0.0017308 0 0)
(-0.0017308 0 0)
(-0.0017308 0 0)
(-0.0017308 0 0)
(-0.0017308 0 0)
(-0.00173081 0 0)
(-0.00173081 0 0)
(-0.00173081 0 0)
(-0.00173081 0 0)
(-0.00173081 0 0)
(-0.00173081 0 0)
(-0.00173081 0 0)
(-0.00173081 0 0)
(-0.00173081 0 0)
(-0.00173081 0 0)
(-0.00173081 0 0)
(-0.00173081 0 0)
(-0.00173081 0 0)
(-0.00173081 0 0)
(-0.00173081 0 0)
(-0.00173081 0 0)
(-0.00173081 0 0)
(-0.00173081 0 0)
(-0.00173081 0 0)
(-0.00173081 0 0)
(-0.00173081 0 0)
(-0.00173081 0 0)
(-0.00173081 0 0)
(-0.00173081 0 0)
(-0.00173081 0 0)
(-0.00173081 0 0)
(-0.00173081 0 0)
(-0.00173081 0 0)
(-0.00173081 0 0)
(-0.00173081 0 0)
(-0.00173081 0 0)
(-0.00173081 0 0)
(-0.00173081 0 0)
(-0.00173081 0 0)
(-0.00173081 0 0)
(-0.00173081 0 0)
(-0.00173081 0 0)
(-0.00173081 0 0)
(-0.00173081 0 0)
(-0.00173081 0 0)
(-0.00173081 0 0)
(-0.00173081 0 0)
(-0.00173081 0 0)
(-0.00173081 0 0)
(-0.00173081 0 0)
(-0.00173081 0 0)
(-0.00173081 0 0)
(-0.00173081 0 0)
(-0.00173081 0 0)
(-0.00173081 0 0)
(-0.00173081 0 0)
(-0.00173081 0 0)
(-0.00173081 0 0)
(-0.00173081 0 0)
(-0.00173081 0 0)
(-0.00173081 0 0)
(-0.00173081 0 0)
(-0.00173081 0 0)
(-0.00173081 0 0)
(-0.00173081 0 0)
(-0.00173081 0 0)
(-0.00173081 0 0)
(-0.00173081 0 0)
(-0.00173081 0 0)
(-0.00173081 0 0)
(-0.00173081 0 0)
(-0.00173081 0 0)
(-0.0017308 0 0)
(-0.00173081 0 0)
(-0.00173081 0 0)
(-0.00173081 0 0)
(-0.00173081 0 0)
(-0.0017308 0 0)
(-0.00173081 0 0)
(-0.0017308 0 0)
(-0.00173081 0 0)
(-0.0017308 0 0)
(-0.00173081 0 0)
(-0.00173081 0 0)
(-0.00173081 0 0)
(-0.00173081 0 0)
(-0.00173081 0 0)
(-0.00173081 0 0)
(-0.00173081 0 0)
(-0.00173081 0 0)
(-0.00173081 0 0)
(-0.00173081 0 0)
(-0.0017308 0 0)
(-0.00173081 0 0)
(-0.00173081 0 0)
(-0.00173081 0 0)
(-0.00173081 0 0)
(-0.00173081 0 0)
(-0.0017308 0 0)
(-0.00173081 0 0)
(-0.00173081 0 0)
(-0.0017308 0 0)
(-0.00173081 0 0)
(-0.0017308 0 0)
(-0.00173081 0 0)
(-0.0017308 0 0)
(-0.0017308 0 0)
(-0.00173081 0 0)
(-0.0017308 0 0)
(-0.0017308 0 0)
(-0.0017308 0 0)
(-0.0017308 0 0)
(-0.0017308 0 0)
(-0.0017308 0 0)
(-0.0017308 0 0)
(-0.0017308 0 0)
(-0.0017308 0 0)
(-0.0017308 0 0)
(-0.0017308 0 0)
(-0.0017308 0 0)
(-0.0017308 0 0)
(-0.0017308 0 0)
(-0.0017308 0 0)
(-0.0017308 0 0)
(-0.0017308 0 0)
(-0.0017308 0 0)
(-0.0017308 0 0)
(-0.0017308 0 0)
(-0.0017308 0 0)
(-0.0017308 0 0)
(-0.0017308 0 0)
(-0.0017308 0 0)
(-0.0017308 0 0)
(-0.0017308 0 0)
(-0.0017308 0 0)
(-0.0017308 0 0)
(-0.0017308 0 0)
(-0.0017308 0 0)
(-0.0017308 0 0)
(-0.0017308 0 0)
(-0.0017308 0 0)
(-0.00173079 0 0)
(-0.0017308 0 0)
(-0.00173079 0 0)
(-0.0017308 0 0)
(-0.00173079 0 0)
(-0.0017308 0 0)
(-0.00173079 0 0)
(-0.00173079 0 0)
(-0.00173079 0 0)
(-0.00173079 0 0)
(-0.00173079 0 0)
(-0.00173079 0 0)
(-0.00173079 0 0)
(-0.00173079 0 0)
(-0.00173079 0 0)
(-0.00173079 0 0)
(-0.00173079 0 0)
(-0.00173079 0 0)
(-0.00173079 0 0)
(-0.00173079 0 0)
(-0.00173079 0 0)
(-0.00173079 0 0)
(-0.00173079 0 0)
(-0.00173079 0 0)
(-0.00173079 0 0)
(-0.00173079 0 0)
(-0.00173079 0 0)
(-0.00173079 0 0)
(-0.00173079 0 0)
(-0.00173079 0 0)
(-0.00173079 0 0)
(-0.00173079 0 0)
(-0.00173079 0 0)
(-0.00173079 0 0)
(-0.00173079 0 0)
(-0.00173079 0 0)
(-0.00173079 0 0)
(-0.00173079 0 0)
(-0.00173079 0 0)
(-0.00173079 0 0)
(-0.00173079 0 0)
(-0.00173079 0 0)
(-0.00173079 0 0)
(-0.00173079 0 0)
(-0.00173079 0 0)
(-0.00173079 0 0)
(-0.00173079 0 0)
(-0.00173079 0 0)
(-0.00173079 0 0)
(-0.00173079 0 0)
(-0.00173079 0 0)
(-0.00173079 0 0)
(-0.00173079 0 0)
(-0.00173079 0 0)
(-0.00173079 0 0)
(-0.00173079 0 0)
(-0.00173079 0 0)
(-0.00173079 0 0)
(-0.00173079 0 0)
(-0.00173079 0 0)
(-0.00173079 0 0)
(-0.00173079 0 0)
(-0.00173079 0 0)
(-0.00173079 0 0)
(-0.00173079 0 0)
(-0.00173079 0 0)
(-0.00173079 0 0)
(-0.00173079 0 0)
(-0.00173079 0 0)
(-0.00173079 0 0)
(-0.00173079 0 0)
(-0.00173079 0 0)
(-0.00173079 0 0)
(-0.00173079 0 0)
(-0.00173079 0 0)
(-0.00173079 0 0)
(-0.00173079 0 0)
(-0.00173079 0 0)
(-0.00173079 0 0)
(-0.00173079 0 0)
(-0.00173079 0 0)
(-0.0017308 0 0)
(-0.00173079 0 0)
(-0.0017308 0 0)
(-0.00173079 0 0)
(-0.00173079 0 0)
(-0.0017308 0 0)
(-0.00173079 0 0)
(-0.0017308 0 0)
(-0.0017308 0 0)
(-0.00173079 0 0)
(-0.0017308 0 0)
(-0.0017308 0 0)
(-0.00173079 0 0)
(-0.0017308 0 0)
(-0.0017308 0 0)
(-0.00173079 0 0)
(-0.00173079 0 0)
(-0.00173079 0 0)
(-0.00173079 0 0)
(-0.00173079 0 0)
(-0.00173079 0 0)
(-0.00173079 0 0)
(-0.00173079 0 0)
(-0.00173079 0 0)
(-0.00173079 0 0)
(-0.00173079 0 0)
(-0.00173079 0 0)
(-0.00173079 0 0)
(-0.00173079 0 0)
(-0.00173079 0 0)
(-0.00173079 0 0)
(-0.00173079 0 0)
(-0.00173079 0 0)
(-0.00173078 0 0)
(-0.00173079 0 0)
(-0.00173078 0 0)
(-0.00173079 0 0)
(-0.00173078 0 0)
(-0.00173078 0 0)
(-0.00173078 0 0)
(-0.00173078 0 0)
(-0.00173078 0 0)
(-0.00173078 0 0)
(-0.00173078 0 0)
(-0.00173078 0 0)
(-0.00173078 0 0)
(-0.00173078 0 0)
(-0.00173077 0 0)
(-0.00173078 0 0)
(-0.00173077 0 0)
(-0.00173078 0 0)
(-0.00173077 0 0)
(-0.00173077 0 0)
(-0.00173077 0 0)
(-0.00173077 0 0)
(-0.00173077 0 0)
(-0.00173076 0 0)
(-0.00173077 0 0)
(-0.00173077 0 0)
(-0.00173076 0 0)
(-0.00173077 0 0)
(-0.00173076 0 0)
(-0.00173076 0 0)
(-0.00173076 0 0)
(-0.00173076 0 0)
(-0.00173076 0 0)
(-0.00173076 0 0)
(-0.00173076 0 0)
(-0.00173076 0 0)
(-0.00173076 0 0)
(-0.00173075 0 0)
(-0.00173076 0 0)
(-0.00173076 0 0)
(-0.00173075 0 0)
(-0.00173076 0 0)
(-0.00173075 0 0)
(-0.00173075 0 0)
(-0.00173075 0 0)
(-0.00173075 0 0)
(-0.00173075 0 0)
(-0.00173075 0 0)
(-0.00173075 0 0)
(-0.00173075 0 0)
(-0.00173075 0 0)
(-0.00173075 0 0)
(-0.00173075 0 0)
(-0.00173075 0 0)
(-0.00173075 0 0)
(-0.00173075 0 0)
(-0.00173075 0 0)
(-0.00173075 0 0)
(-0.00173075 0 0)
(-0.00173075 0 0)
(-0.00173075 0 0)
(-0.00173075 0 0)
(-0.00173075 0 0)
(-0.00173075 0 0)
(-0.00173075 0 0)
(-0.00173075 0 0)
(-0.00173075 0 0)
(-0.00173075 0 0)
(-0.00173076 0 0)
(-0.00173076 0 0)
(-0.00173076 0 0)
(-0.00173076 0 0)
(-0.00173076 0 0)
(-0.00173076 0 0)
(-0.00173076 0 0)
(-0.00173076 0 0)
(-0.00173076 0 0)
(-0.00173076 0 0)
(-0.00173076 0 0)
(-0.00173076 0 0)
(-0.00173077 0 0)
(-0.00173077 0 0)
(-0.00173077 0 0)
(-0.00173077 0 0)
(-0.00173077 0 0)
(-0.00173077 0 0)
(-0.00173077 0 0)
(-0.00173077 0 0)
(-0.00173078 0 0)
(-0.00173078 0 0)
(-0.00173078 0 0)
(-0.00173078 0 0)
(-0.00173078 0 0)
(-0.00173078 0 0)
(-0.00173079 0 0)
(-0.00173079 0 0)
(-0.00173079 0 0)
(-0.00173079 0 0)
(-0.00173079 0 0)
(-0.00173079 0 0)
(-0.0017308 0 0)
(-0.0017308 0 0)
(-0.0017308 0 0)
(-0.0017308 0 0)
(-0.0017308 0 0)
(-0.00173081 0 0)
(-0.00173081 0 0)
(-0.00173081 0 0)
(-0.00173082 0 0)
(-0.00173082 0 0)
(-0.00173082 0 0)
(-0.00173083 0 0)
(-0.00173083 0 0)
(-0.00173083 0 0)
(-0.00173084 0 0)
(-0.00173084 0 0)
(-0.00173085 0 0)
(-0.00173085 0 0)
(-0.00173086 0 0)
(-0.00173086 0 0)
(-0.00173087 0 0)
(-0.00173088 0 0)
(-0.00173089 0 0)
(-0.0017309 0 0)
(-0.00173091 0 0)
(-0.00173092 0 0)
(-0.00173093 0 0)
(-0.00173094 0 0)
(-0.00173096 0 0)
(-0.00173097 0 0)
(-0.00173099 0 0)
(-0.00173101 0 0)
(-0.00173103 0 0)
(-0.00173105 0 0)
(-0.00173107 0 0)
(-0.0017311 0 0)
(-0.00173112 0 0)
(-0.00173115 0 0)
(-0.00173118 0 0)
(-0.00173122 0 0)
(-0.00173126 0 0)
(-0.0017313 0 0)
(-0.00173135 0 0)
(-0.00173139 0 0)
(-0.00173145 0 0)
(-0.00173151 0 0)
(-0.00173157 0 0)
(-0.00173164 0 0)
(-0.00173171 0 0)
(-0.00173179 0 0)
(-0.00173187 0 0)
(-0.00173197 0 0)
(-0.00173207 0 0)
(-0.00173217 0 0)
(-0.00173229 0 0)
(-0.00173242 0 0)
(-0.00173255 0 0)
(-0.0017327 0 0)
(-0.00173286 0 0)
(-0.00173303 0 0)
(-0.00173321 0 0)
(-0.00173341 0 0)
(-0.00173362 0 0)
(-0.00173384 0 0)
(-0.00173409 0 0)
(-0.00173435 0 0)
(-0.00173463 0 0)
(-0.00173493 0 0)
(-0.00173525 0 0)
(-0.0017356 0 0)
(-0.00173597 0 0)
(-0.00173636 0 0)
(-0.00173679 0 0)
(-0.00173724 0 0)
(-0.00173772 0 0)
(-0.00173824 0 0)
(-0.00173879 0 0)
(-0.00173938 0 0)
(-0.00174001 0 0)
(-0.00174068 0 0)
(-0.0017414 0 0)
(-0.00174216 0 0)
(-0.00174297 0 0)
(-0.00174383 0 0)
(-0.00174474 0 0)
(-0.00174571 0 0)
(-0.00174675 0 0)
(-0.00174785 0 0)
(-0.00174901 0 0)
(-0.00175025 0 0)
(-0.00175155 0 0)
(-0.00175294 0 0)
(-0.00175441 0 0)
(-0.00175597 0 0)
(-0.00175761 0 0)
(-0.00175935 0 0)
(-0.00176119 0 0)
(-0.00176314 0 0)
(-0.00176519 0 0)
(-0.00176735 0 0)
(-0.00176963 0 0)
(-0.00177204 0 0)
(-0.00177458 0 0)
(-0.00177725 0 0)
(-0.00178006 0 0)
(-0.00178301 0 0)
(-0.00178612 0 0)
(-0.00178939 0 0)
(-0.00179282 0 0)
(-0.00179642 0 0)
(-0.0018002 0 0)
(-0.00180416 0 0)
(-0.00180831 0 0)
(-0.00181266 0 0)
(-0.00181721 0 0)
(-0.00182198 0 0)
(-0.00182696 0 0)
(-0.00183217 0 0)
(-0.00183761 0 0)
(-0.00184329 0 0)
(-0.00184922 0 0)
(-0.0018554 0 0)
(-0.00186185 0 0)
(-0.00186856 0 0)
(-0.00187555 0 0)
(-0.00188283 0 0)
(-0.00189039 0 0)
(-0.00189826 0 0)
(-0.00190643 0 0)
(-0.00191492 0 0)
(-0.00192372 0 0)
(-0.00193286 0 0)
(-0.00194233 0 0)
(-0.00195214 0 0)
(-0.00196229 0 0)
(-0.0019728 0 0)
(-0.00198367 0 0)
(-0.0019949 0 0)
(-0.00200651 0 0)
(-0.00201849 0 0)
(-0.00203085 0 0)
(-0.0020436 0 0)
(-0.00205673 0 0)
(-0.00207026 0 0)
(-0.00208419 0 0)
(-0.00209851 0 0)
(-0.00211324 0 0)
(-0.00212837 0 0)
(-0.0021439 0 0)
(-0.00215984 0 0)
(-0.00217619 0 0)
(-0.00219293 0 0)
(-0.00221009 0 0)
(-0.00222764 0 0)
(-0.00224559 0 0)
(-0.00226393 0 0)
(-0.00228267 0 0)
(-0.00230179 0 0)
(-0.00232128 0 0)
(-0.00234115 0 0)
(-0.00236139 0 0)
(-0.00238197 0 0)
(-0.0024029 0 0)
(-0.00242417 0 0)
(-0.00244575 0 0)
(-0.00246764 0 0)
(-0.00248982 0 0)
(-0.00251228 0 0)
(-0.002535 0 0)
(-0.00255795 0 0)
(-0.00258113 0 0)
(-0.00260451 0 0)
(-0.00262806 0 0)
(-0.00265176 0 0)
(-0.00267559 0 0)
(-0.00269952 0 0)
(-0.00272351 0 0)
(-0.00274755 0 0)
(-0.00277159 0 0)
(-0.0027956 0 0)
(-0.00281954 0 0)
(-0.00284338 0 0)
(-0.00286708 0 0)
(-0.00289059 0 0)
(-0.00291387 0 0)
(-0.00293688 0 0)
(-0.00295956 0 0)
(-0.00298186 0 0)
(-0.00300373 0 0)
(-0.00302511 0 0)
(-0.00304595 0 0)
(-0.00306619 0 0)
(-0.00308576 0 0)
(-0.0031046 0 0)
(-0.00312264 0 0)
(-0.00313981 0 0)
(-0.00315604 0 0)
(-0.00317131 0 0)
(-0.00318559 0 0)
(-0.00319852 0 0)
(-0.00320976 0 0)
(-0.00321934 0 0)
(-0.00322735 0 0)
(-0.00323374 0 0)
(-0.00323846 0 0)
(-0.00324128 0 0)
(-0.00324209 0 0)
(-0.00324075 0 0)
(-0.00323702 0 0)
(-0.00323083 0 0)
(-0.00322193 0 0)
(-0.00321016 0 0)
(-0.00319533 0 0)
(-0.00317721 0 0)
(-0.0031556 0 0)
(-0.00313027 0 0)
(-0.00310098 0 0)
(-0.00306749 0 0)
(-0.00302954 0 0)
(-0.00298687 0 0)
(-0.00293921 0 0)
(-0.0028863 0 0)
(-0.00282786 0 0)
(-0.00276363 0 0)
(-0.00269336 0 0)
(-0.00261678 0 0)
(-0.00253385 0 0)
(-0.00244477 0 0)
(-0.00234942 0 0)
(-0.00224366 0 0)
(-0.00211842 0 0)
(-0.00199391 0 0)
)
;

boundaryField
{
    fixedWall
    {
        type            fixedValue;
        value           uniform (0 0 0);
    }
    outlet
    {
        type            pressureInletOutletVelocity;
        value           uniform (-0.00199391 0 0);
    }
    defaultFaces
    {
        type            empty;
    }
}


// ************************************************************************* //
