/*--------------------------------*- C++ -*----------------------------------*\
| =========                 |                                                 |
| \\      /  F ield         | OpenFOAM: The Open Source CFD Toolbox           |
|  \\    /   O peration     | Version:  2406                                  |
|   \\  /    A nd           | Website:  www.openfoam.com                      |
|    \\/     M anipulation  |                                                 |
\*---------------------------------------------------------------------------*/
FoamFile
{
    version     2.0;
    format      ascii;
    arch        "LSB;label=32;scalar=64";
    class       volScalarField;
    location    "12.4";
    object      O2;
}
// * * * * * * * * * * * * * * * * * * * * * * * * * * * * * * * * * * * * * //

dimensions      [0 0 0 0 0 0 0];

internalField   nonuniform List<scalar> 
1000
(
1.05975e-06
1.05819e-06
1.05534e-06
1.05138e-06
1.04648e-06
1.04074e-06
1.03427e-06
1.02715e-06
1.01944e-06
1.0112e-06
1.00249e-06
9.93345e-07
9.83808e-07
9.73915e-07
9.63698e-07
9.53187e-07
9.42407e-07
9.31385e-07
9.20143e-07
9.08703e-07
8.97084e-07
8.85305e-07
8.73385e-07
8.61339e-07
8.49184e-07
8.36935e-07
8.24606e-07
8.12211e-07
7.99764e-07
7.87278e-07
7.74764e-07
7.62236e-07
7.49705e-07
7.37182e-07
7.24679e-07
7.12206e-07
6.99774e-07
6.87394e-07
6.75075e-07
6.62827e-07
6.50659e-07
6.38582e-07
6.26603e-07
6.14731e-07
6.02974e-07
5.91341e-07
5.79839e-07
5.68474e-07
5.57254e-07
5.46185e-07
5.35273e-07
5.24524e-07
5.13942e-07
5.03533e-07
4.93301e-07
4.83249e-07
4.73382e-07
4.63702e-07
4.54211e-07
4.44913e-07
4.35809e-07
4.26901e-07
4.18189e-07
4.09674e-07
4.01357e-07
3.93238e-07
3.85316e-07
3.7759e-07
3.70061e-07
3.62727e-07
3.55586e-07
3.48637e-07
3.41877e-07
3.35306e-07
3.2892e-07
3.22717e-07
3.16695e-07
3.10851e-07
3.05181e-07
2.99683e-07
2.94355e-07
2.89192e-07
2.84191e-07
2.7935e-07
2.74665e-07
2.70132e-07
2.65748e-07
2.6151e-07
2.57414e-07
2.53456e-07
2.49634e-07
2.45944e-07
2.42382e-07
2.38946e-07
2.3563e-07
2.32433e-07
2.29351e-07
2.26381e-07
2.2352e-07
2.20763e-07
2.18109e-07
2.15554e-07
2.13095e-07
2.10729e-07
2.08454e-07
2.06266e-07
2.04163e-07
2.02141e-07
2.00199e-07
1.98334e-07
1.96542e-07
1.94823e-07
1.93173e-07
1.91589e-07
1.90071e-07
1.88614e-07
1.87218e-07
1.85881e-07
1.84599e-07
1.83371e-07
1.82196e-07
1.81071e-07
1.79995e-07
1.78965e-07
1.77981e-07
1.7704e-07
1.76141e-07
1.75282e-07
1.74462e-07
1.73679e-07
1.72932e-07
1.7222e-07
1.71541e-07
1.70894e-07
1.70278e-07
1.69691e-07
1.69133e-07
1.68602e-07
1.68098e-07
1.67619e-07
1.67164e-07
1.66732e-07
1.66323e-07
1.65935e-07
1.65568e-07
1.65221e-07
1.64893e-07
1.64583e-07
1.6429e-07
1.64014e-07
1.63755e-07
1.63511e-07
1.63281e-07
1.63066e-07
1.62865e-07
1.62677e-07
1.62501e-07
1.62337e-07
1.62185e-07
1.62043e-07
1.61913e-07
1.61792e-07
1.61681e-07
1.61579e-07
1.61487e-07
1.61402e-07
1.61326e-07
1.61258e-07
1.61197e-07
1.61143e-07
1.61096e-07
1.61056e-07
1.61021e-07
1.60993e-07
1.60971e-07
1.60953e-07
1.60941e-07
1.60935e-07
1.60932e-07
1.60935e-07
1.60941e-07
1.60952e-07
1.60967e-07
1.60986e-07
1.61008e-07
1.61034e-07
1.61063e-07
1.61095e-07
1.6113e-07
1.61168e-07
1.61209e-07
1.61253e-07
1.61298e-07
1.61347e-07
1.61397e-07
1.6145e-07
1.61505e-07
1.61562e-07
1.61621e-07
1.61681e-07
1.61743e-07
1.61807e-07
1.61873e-07
1.61939e-07
1.62008e-07
1.62078e-07
1.62149e-07
1.62221e-07
1.62294e-07
1.62369e-07
1.62444e-07
1.62521e-07
1.62599e-07
1.62677e-07
1.62757e-07
1.62837e-07
1.62918e-07
1.63e-07
1.63082e-07
1.63166e-07
1.6325e-07
1.63334e-07
1.63419e-07
1.63505e-07
1.63591e-07
1.63678e-07
1.63766e-07
1.63853e-07
1.63942e-07
1.6403e-07
1.6412e-07
1.64209e-07
1.64299e-07
1.64389e-07
1.6448e-07
1.64571e-07
1.64662e-07
1.64754e-07
1.64846e-07
1.64938e-07
1.65031e-07
1.65123e-07
1.65216e-07
1.6531e-07
1.65403e-07
1.65497e-07
1.65591e-07
1.65685e-07
1.65779e-07
1.65874e-07
1.65968e-07
1.66063e-07
1.66158e-07
1.66254e-07
1.66349e-07
1.66444e-07
1.6654e-07
1.66636e-07
1.66732e-07
1.66828e-07
1.66924e-07
1.67021e-07
1.67117e-07
1.67214e-07
1.67311e-07
1.67408e-07
1.67505e-07
1.67602e-07
1.67699e-07
1.67797e-07
1.67894e-07
1.67992e-07
1.68089e-07
1.68187e-07
1.68285e-07
1.68383e-07
1.68481e-07
1.68579e-07
1.68678e-07
1.68776e-07
1.68874e-07
1.68973e-07
1.69072e-07
1.69171e-07
1.69269e-07
1.69368e-07
1.69468e-07
1.69567e-07
1.69666e-07
1.69765e-07
1.69865e-07
1.69964e-07
1.70064e-07
1.70164e-07
1.70264e-07
1.70363e-07
1.70463e-07
1.70564e-07
1.70664e-07
1.70764e-07
1.70864e-07
1.70965e-07
1.71066e-07
1.71166e-07
1.71267e-07
1.71368e-07
1.71469e-07
1.7157e-07
1.71671e-07
1.71772e-07
1.71874e-07
1.71975e-07
1.72077e-07
1.72178e-07
1.7228e-07
1.72382e-07
1.72484e-07
1.72586e-07
1.72688e-07
1.7279e-07
1.72893e-07
1.72995e-07
1.73098e-07
1.73201e-07
1.73303e-07
1.73406e-07
1.73509e-07
1.73612e-07
1.73716e-07
1.73819e-07
1.73923e-07
1.74026e-07
1.7413e-07
1.74234e-07
1.74337e-07
1.74441e-07
1.74546e-07
1.7465e-07
1.74754e-07
1.74859e-07
1.74963e-07
1.75068e-07
1.75173e-07
1.75278e-07
1.75383e-07
1.75488e-07
1.75593e-07
1.75699e-07
1.75804e-07
1.7591e-07
1.76016e-07
1.76122e-07
1.76228e-07
1.76334e-07
1.7644e-07
1.76547e-07
1.76653e-07
1.7676e-07
1.76867e-07
1.76974e-07
1.77081e-07
1.77188e-07
1.77296e-07
1.77403e-07
1.77511e-07
1.77618e-07
1.77726e-07
1.77834e-07
1.77942e-07
1.78051e-07
1.78159e-07
1.78268e-07
1.78376e-07
1.78485e-07
1.78594e-07
1.78703e-07
1.78812e-07
1.78922e-07
1.79031e-07
1.79141e-07
1.79251e-07
1.79361e-07
1.79471e-07
1.79581e-07
1.79691e-07
1.79802e-07
1.79913e-07
1.80023e-07
1.80134e-07
1.80245e-07
1.80356e-07
1.80468e-07
1.80579e-07
1.80691e-07
1.80803e-07
1.80915e-07
1.81027e-07
1.81139e-07
1.81251e-07
1.81364e-07
1.81476e-07
1.81589e-07
1.81702e-07
1.81815e-07
1.81928e-07
1.82042e-07
1.82155e-07
1.82269e-07
1.82383e-07
1.82497e-07
1.82611e-07
1.82725e-07
1.8284e-07
1.82954e-07
1.83069e-07
1.83184e-07
1.83299e-07
1.83414e-07
1.83529e-07
1.83644e-07
1.8376e-07
1.83876e-07
1.83991e-07
1.84107e-07
1.84224e-07
1.8434e-07
1.84456e-07
1.84573e-07
1.8469e-07
1.84807e-07
1.84924e-07
1.85041e-07
1.85158e-07
1.85276e-07
1.85393e-07
1.85511e-07
1.85629e-07
1.85747e-07
1.85865e-07
1.85984e-07
1.86102e-07
1.86221e-07
1.8634e-07
1.86459e-07
1.86578e-07
1.86697e-07
1.86817e-07
1.86937e-07
1.87056e-07
1.87176e-07
1.87296e-07
1.87417e-07
1.87537e-07
1.87658e-07
1.87778e-07
1.87899e-07
1.8802e-07
1.88141e-07
1.88262e-07
1.88384e-07
1.88505e-07
1.88627e-07
1.88749e-07
1.88871e-07
1.88994e-07
1.89116e-07
1.89239e-07
1.89361e-07
1.89484e-07
1.89607e-07
1.8973e-07
1.89854e-07
1.89977e-07
1.90101e-07
1.90225e-07
1.90349e-07
1.90473e-07
1.90598e-07
1.90722e-07
1.90847e-07
1.90972e-07
1.91097e-07
1.91222e-07
1.91347e-07
1.91473e-07
1.91598e-07
1.91724e-07
1.9185e-07
1.91976e-07
1.92103e-07
1.92229e-07
1.92356e-07
1.92483e-07
1.9261e-07
1.92737e-07
1.92864e-07
1.92992e-07
1.93119e-07
1.93247e-07
1.93375e-07
1.93503e-07
1.93632e-07
1.9376e-07
1.93889e-07
1.94018e-07
1.94147e-07
1.94276e-07
1.94405e-07
1.94535e-07
1.94665e-07
1.94795e-07
1.94925e-07
1.95055e-07
1.95185e-07
1.95316e-07
1.95447e-07
1.95578e-07
1.95709e-07
1.9584e-07
1.95972e-07
1.96103e-07
1.96235e-07
1.96367e-07
1.96499e-07
1.96632e-07
1.96764e-07
1.96897e-07
1.9703e-07
1.97163e-07
1.97296e-07
1.9743e-07
1.97563e-07
1.97697e-07
1.97831e-07
1.97965e-07
1.981e-07
1.98234e-07
1.98369e-07
1.98504e-07
1.98639e-07
1.98774e-07
1.9891e-07
1.99045e-07
1.99181e-07
1.99317e-07
1.99453e-07
1.99589e-07
1.99726e-07
1.99863e-07
2e-07
2.00137e-07
2.00274e-07
2.00412e-07
2.00549e-07
2.00687e-07
2.00825e-07
2.00963e-07
2.01102e-07
2.0124e-07
2.01379e-07
2.01518e-07
2.01657e-07
2.01796e-07
2.01936e-07
2.02076e-07
2.02216e-07
2.02356e-07
2.02496e-07
2.02637e-07
2.02777e-07
2.02918e-07
2.03059e-07
2.032e-07
2.03342e-07
2.03484e-07
2.03625e-07
2.03767e-07
2.0391e-07
2.04052e-07
2.04195e-07
2.04338e-07
2.04481e-07
2.04624e-07
2.04767e-07
2.04911e-07
2.05055e-07
2.05199e-07
2.05343e-07
2.05488e-07
2.05632e-07
2.05777e-07
2.05922e-07
2.06068e-07
2.06213e-07
2.06359e-07
2.06505e-07
2.06651e-07
2.06797e-07
2.06944e-07
2.0709e-07
2.07237e-07
2.07385e-07
2.07532e-07
2.0768e-07
2.07827e-07
2.07975e-07
2.08124e-07
2.08272e-07
2.08421e-07
2.0857e-07
2.08719e-07
2.08868e-07
2.09018e-07
2.09167e-07
2.09317e-07
2.09467e-07
2.09618e-07
2.09768e-07
2.09919e-07
2.1007e-07
2.10222e-07
2.10373e-07
2.10525e-07
2.10677e-07
2.10829e-07
2.1098e-07
2.11133e-07
2.11286e-07
2.11439e-07
2.11592e-07
2.11746e-07
2.119e-07
2.12054e-07
2.12208e-07
2.12362e-07
2.12517e-07
2.12672e-07
2.12827e-07
2.12983e-07
2.13138e-07
2.13294e-07
2.1345e-07
2.13606e-07
2.13763e-07
2.1392e-07
2.14077e-07
2.14234e-07
2.14391e-07
2.14549e-07
2.14707e-07
2.14865e-07
2.15023e-07
2.15182e-07
2.15341e-07
2.155e-07
2.15659e-07
2.15819e-07
2.15979e-07
2.16139e-07
2.16299e-07
2.16459e-07
2.1662e-07
2.1678e-07
2.16941e-07
2.17103e-07
2.17264e-07
2.17426e-07
2.17588e-07
2.1775e-07
2.17913e-07
2.18076e-07
2.18239e-07
2.18402e-07
2.18566e-07
2.18729e-07
2.18893e-07
2.19058e-07
2.19222e-07
2.19387e-07
2.19552e-07
2.19717e-07
2.19882e-07
2.20048e-07
2.20214e-07
2.2038e-07
2.20546e-07
2.20713e-07
2.2088e-07
2.21047e-07
2.21214e-07
2.21382e-07
2.2155e-07
2.21718e-07
2.21886e-07
2.22055e-07
2.22224e-07
2.22393e-07
2.22562e-07
2.22732e-07
2.22902e-07
2.23072e-07
2.23242e-07
2.23413e-07
2.23584e-07
2.23755e-07
2.23926e-07
2.24098e-07
2.2427e-07
2.24442e-07
2.24615e-07
2.24788e-07
2.2496e-07
2.25133e-07
2.25306e-07
2.2548e-07
2.25654e-07
2.25828e-07
2.26003e-07
2.26178e-07
2.26353e-07
2.26528e-07
2.26704e-07
2.2688e-07
2.27056e-07
2.27233e-07
2.27409e-07
2.27586e-07
2.27763e-07
2.2794e-07
2.28118e-07
2.28296e-07
2.28475e-07
2.28654e-07
2.28833e-07
2.29012e-07
2.29192e-07
2.29371e-07
2.29552e-07
2.29732e-07
2.29913e-07
2.30094e-07
2.30276e-07
2.30457e-07
2.30639e-07
2.30822e-07
2.31004e-07
2.31187e-07
2.31371e-07
2.31554e-07
2.31738e-07
2.31922e-07
2.32107e-07
2.32292e-07
2.32477e-07
2.32663e-07
2.32849e-07
2.33035e-07
2.33222e-07
2.33409e-07
2.33596e-07
2.33784e-07
2.33972e-07
2.3416e-07
2.34349e-07
2.34538e-07
2.34728e-07
2.34918e-07
2.35108e-07
2.35299e-07
2.3549e-07
2.35681e-07
2.35873e-07
2.36066e-07
2.36259e-07
2.36452e-07
2.36646e-07
2.3684e-07
2.37035e-07
2.3723e-07
2.37426e-07
2.37622e-07
2.37819e-07
2.38017e-07
2.38215e-07
2.38414e-07
2.38613e-07
2.38813e-07
2.39014e-07
2.39216e-07
2.39418e-07
2.39621e-07
2.39825e-07
2.4003e-07
2.40236e-07
2.40443e-07
2.40651e-07
2.4086e-07
2.4107e-07
2.41281e-07
2.41494e-07
2.41708e-07
2.41923e-07
2.42141e-07
2.42359e-07
2.4258e-07
2.42802e-07
2.43026e-07
2.43252e-07
2.4348e-07
2.43711e-07
2.43944e-07
2.4418e-07
2.44418e-07
2.4466e-07
2.44904e-07
2.45152e-07
2.45403e-07
2.45659e-07
2.45918e-07
2.46181e-07
2.46449e-07
2.46722e-07
2.46999e-07
2.47283e-07
2.47571e-07
2.47866e-07
2.48168e-07
2.48476e-07
2.48792e-07
2.49116e-07
2.49448e-07
2.49788e-07
2.50138e-07
2.50498e-07
2.50869e-07
2.5125e-07
2.51644e-07
2.5205e-07
2.52469e-07
2.52902e-07
2.5335e-07
2.53814e-07
2.54295e-07
2.54794e-07
2.55311e-07
2.55849e-07
2.56407e-07
2.56988e-07
2.57592e-07
2.58221e-07
2.58876e-07
2.59559e-07
2.60271e-07
2.61015e-07
2.61791e-07
2.62601e-07
2.63448e-07
2.64333e-07
2.65259e-07
2.66227e-07
2.6724e-07
2.683e-07
2.6941e-07
2.70573e-07
2.7179e-07
2.73066e-07
2.74402e-07
2.75802e-07
2.77269e-07
2.78807e-07
2.80419e-07
2.82108e-07
2.83879e-07
2.85736e-07
2.87681e-07
2.89721e-07
2.91858e-07
2.94099e-07
2.96446e-07
2.98907e-07
3.01484e-07
3.04184e-07
3.07012e-07
3.09974e-07
3.13076e-07
3.16323e-07
3.19721e-07
3.23278e-07
3.26998e-07
3.3089e-07
3.3496e-07
3.39214e-07
3.43661e-07
3.48306e-07
3.53158e-07
3.58225e-07
3.63513e-07
3.69032e-07
3.74788e-07
3.80789e-07
3.87044e-07
3.93561e-07
4.00348e-07
4.07413e-07
4.14763e-07
4.22408e-07
4.30354e-07
4.3861e-07
4.47183e-07
4.56081e-07
4.6531e-07
4.74877e-07
4.84788e-07
4.9505e-07
5.05667e-07
5.16645e-07
5.27987e-07
5.39696e-07
5.51775e-07
5.64225e-07
5.77047e-07
5.9024e-07
6.03801e-07
6.17727e-07
6.32014e-07
6.46654e-07
6.61639e-07
6.76959e-07
6.92601e-07
7.08551e-07
7.24792e-07
7.41305e-07
7.58067e-07
7.75055e-07
7.92241e-07
8.09596e-07
8.27085e-07
8.44673e-07
8.62321e-07
8.79987e-07
8.97624e-07
9.15185e-07
9.32617e-07
9.49866e-07
9.66875e-07
9.83581e-07
9.99924e-07
1.01584e-06
1.03125e-06
1.04609e-06
1.0603e-06
1.07379e-06
1.08649e-06
1.09834e-06
1.10924e-06
1.11913e-06
1.12793e-06
1.13556e-06
1.14196e-06
1.14705e-06
1.15077e-06
1.15303e-06
1.15377e-06
1.15296e-06
1.15052e-06
1.1464e-06
1.14054e-06
1.1329e-06
1.12344e-06
1.11212e-06
1.09891e-06
1.08379e-06
1.06672e-06
1.04769e-06
1.0267e-06
1.00373e-06
9.78792e-07
9.51895e-07
9.23052e-07
8.92289e-07
8.59637e-07
8.25137e-07
7.88841e-07
7.50809e-07
7.11116e-07
6.69847e-07
6.27102e-07
5.82996e-07
5.37662e-07
4.91253e-07
4.43942e-07
3.95926e-07
3.47429e-07
2.98705e-07
2.50038e-07
2.01748e-07
1.54195e-07
1.07775e-07
6.29252e-08
2.01215e-08
)
;

boundaryField
{
    fixedWall
    {
        type            zeroGradient;
    }
    outlet
    {
        type            inletOutlet;
        inletValue      uniform 0;
        value           uniform 0;
    }
    defaultFaces
    {
        type            empty;
    }
}


// ************************************************************************* //
