/*--------------------------------*- C++ -*----------------------------------*\
| =========                 |                                                 |
| \\      /  F ield         | OpenFOAM: The Open Source CFD Toolbox           |
|  \\    /   O peration     | Version:  2406                                  |
|   \\  /    A nd           | Website:  www.openfoam.com                      |
|    \\/     M anipulation  |                                                 |
\*---------------------------------------------------------------------------*/
FoamFile
{
    version     2.0;
    format      ascii;
    arch        "LSB;label=32;scalar=64";
    class       surfaceScalarField;
    location    "12.4";
    object      phi;
}
// * * * * * * * * * * * * * * * * * * * * * * * * * * * * * * * * * * * * * //

dimensions      [1 0 -1 0 0 0 0];

oriented        oriented;

internalField   nonuniform List<scalar> 
999
(
-1.32851e-08
-4.48974e-08
-8.84466e-08
-1.39944e-07
-1.96784e-07
-2.57212e-07
-3.20014e-07
-3.84341e-07
-4.49569e-07
-5.15248e-07
-5.81051e-07
-6.46731e-07
-7.12107e-07
-7.77033e-07
-8.41416e-07
-9.05171e-07
-9.68238e-07
-1.03058e-06
-1.09217e-06
-1.15298e-06
-1.21299e-06
-1.2722e-06
-1.33061e-06
-1.3882e-06
-1.44499e-06
-1.50097e-06
-1.55615e-06
-1.61053e-06
-1.66412e-06
-1.71694e-06
-1.76898e-06
-1.82025e-06
-1.87078e-06
-1.92055e-06
-1.96958e-06
-2.01789e-06
-2.06547e-06
-2.11234e-06
-2.15851e-06
-2.20399e-06
-2.24878e-06
-2.29289e-06
-2.33633e-06
-2.37911e-06
-2.42124e-06
-2.46272e-06
-2.50356e-06
-2.54377e-06
-2.58336e-06
-2.62233e-06
-2.6607e-06
-2.69846e-06
-2.73563e-06
-2.77221e-06
-2.80821e-06
-2.84364e-06
-2.87849e-06
-2.91279e-06
-2.94653e-06
-2.97971e-06
-3.01236e-06
-3.04447e-06
-3.07604e-06
-3.1071e-06
-3.13763e-06
-3.16764e-06
-3.19715e-06
-3.22615e-06
-3.25466e-06
-3.28267e-06
-3.3102e-06
-3.33725e-06
-3.36382e-06
-3.38991e-06
-3.41555e-06
-3.44072e-06
-3.46544e-06
-3.48971e-06
-3.51353e-06
-3.53692e-06
-3.55987e-06
-3.58239e-06
-3.60449e-06
-3.62616e-06
-3.64742e-06
-3.66828e-06
-3.68873e-06
-3.70878e-06
-3.72843e-06
-3.7477e-06
-3.76658e-06
-3.78508e-06
-3.8032e-06
-3.82096e-06
-3.83835e-06
-3.85538e-06
-3.87205e-06
-3.88837e-06
-3.90435e-06
-3.91998e-06
-3.93528e-06
-3.95025e-06
-3.96489e-06
-3.97921e-06
-3.99321e-06
-4.0069e-06
-4.02028e-06
-4.03336e-06
-4.04613e-06
-4.05861e-06
-4.07081e-06
-4.08272e-06
-4.09434e-06
-4.10569e-06
-4.11677e-06
-4.12759e-06
-4.13814e-06
-4.14843e-06
-4.15847e-06
-4.16826e-06
-4.17781e-06
-4.18711e-06
-4.19618e-06
-4.20502e-06
-4.21363e-06
-4.22202e-06
-4.23018e-06
-4.23814e-06
-4.24588e-06
-4.25341e-06
-4.26075e-06
-4.26788e-06
-4.27482e-06
-4.28157e-06
-4.28813e-06
-4.29451e-06
-4.30071e-06
-4.30673e-06
-4.31259e-06
-4.31827e-06
-4.32379e-06
-4.32915e-06
-4.33436e-06
-4.33941e-06
-4.34431e-06
-4.34906e-06
-4.35368e-06
-4.35815e-06
-4.36249e-06
-4.36669e-06
-4.37076e-06
-4.37471e-06
-4.37853e-06
-4.38224e-06
-4.38582e-06
-4.38929e-06
-4.39265e-06
-4.3959e-06
-4.39905e-06
-4.40209e-06
-4.40503e-06
-4.40787e-06
-4.41061e-06
-4.41326e-06
-4.41584e-06
-4.41833e-06
-4.42074e-06
-4.42307e-06
-4.42531e-06
-4.42746e-06
-4.42953e-06
-4.43153e-06
-4.43346e-06
-4.43534e-06
-4.43714e-06
-4.43888e-06
-4.44054e-06
-4.44215e-06
-4.4437e-06
-4.44518e-06
-4.44661e-06
-4.44798e-06
-4.44931e-06
-4.4506e-06
-4.45184e-06
-4.45304e-06
-4.45418e-06
-4.45528e-06
-4.45633e-06
-4.45735e-06
-4.45833e-06
-4.45926e-06
-4.46017e-06
-4.46104e-06
-4.46187e-06
-4.46267e-06
-4.46343e-06
-4.46417e-06
-4.46487e-06
-4.46554e-06
-4.46619e-06
-4.46681e-06
-4.46741e-06
-4.46798e-06
-4.46852e-06
-4.46904e-06
-4.46954e-06
-4.47002e-06
-4.47048e-06
-4.47092e-06
-4.47133e-06
-4.47173e-06
-4.47211e-06
-4.47248e-06
-4.47283e-06
-4.47316e-06
-4.47348e-06
-4.47379e-06
-4.47408e-06
-4.47435e-06
-4.47462e-06
-4.47487e-06
-4.47511e-06
-4.47534e-06
-4.47556e-06
-4.47577e-06
-4.47596e-06
-4.47615e-06
-4.47633e-06
-4.4765e-06
-4.47667e-06
-4.47682e-06
-4.47697e-06
-4.47711e-06
-4.47724e-06
-4.47736e-06
-4.47748e-06
-4.4776e-06
-4.47771e-06
-4.47781e-06
-4.4779e-06
-4.478e-06
-4.47808e-06
-4.47817e-06
-4.47824e-06
-4.47832e-06
-4.47839e-06
-4.47845e-06
-4.47851e-06
-4.47857e-06
-4.47863e-06
-4.47868e-06
-4.47873e-06
-4.47878e-06
-4.47882e-06
-4.47886e-06
-4.4789e-06
-4.47893e-06
-4.47897e-06
-4.479e-06
-4.47903e-06
-4.47906e-06
-4.47908e-06
-4.47911e-06
-4.47913e-06
-4.47915e-06
-4.47917e-06
-4.47919e-06
-4.4792e-06
-4.47922e-06
-4.47923e-06
-4.47925e-06
-4.47926e-06
-4.47927e-06
-4.47928e-06
-4.47929e-06
-4.4793e-06
-4.47931e-06
-4.47931e-06
-4.47932e-06
-4.47932e-06
-4.47933e-06
-4.47933e-06
-4.47934e-06
-4.47934e-06
-4.47934e-06
-4.47934e-06
-4.47935e-06
-4.47935e-06
-4.47935e-06
-4.47935e-06
-4.47935e-06
-4.47935e-06
-4.47935e-06
-4.47935e-06
-4.47934e-06
-4.47934e-06
-4.47934e-06
-4.47934e-06
-4.47934e-06
-4.47933e-06
-4.47933e-06
-4.47933e-06
-4.47933e-06
-4.47932e-06
-4.47932e-06
-4.47932e-06
-4.47931e-06
-4.47931e-06
-4.47931e-06
-4.4793e-06
-4.4793e-06
-4.4793e-06
-4.47929e-06
-4.47929e-06
-4.47929e-06
-4.47928e-06
-4.47928e-06
-4.47928e-06
-4.47927e-06
-4.47927e-06
-4.47927e-06
-4.47926e-06
-4.47926e-06
-4.47926e-06
-4.47925e-06
-4.47925e-06
-4.47925e-06
-4.47924e-06
-4.47924e-06
-4.47924e-06
-4.47924e-06
-4.47923e-06
-4.47923e-06
-4.47923e-06
-4.47922e-06
-4.47922e-06
-4.47922e-06
-4.47922e-06
-4.47921e-06
-4.47921e-06
-4.47921e-06
-4.47921e-06
-4.4792e-06
-4.4792e-06
-4.4792e-06
-4.4792e-06
-4.47919e-06
-4.47919e-06
-4.47919e-06
-4.47919e-06
-4.47919e-06
-4.47919e-06
-4.47919e-06
-4.47918e-06
-4.47918e-06
-4.47918e-06
-4.47918e-06
-4.47918e-06
-4.47918e-06
-4.47918e-06
-4.47918e-06
-4.47918e-06
-4.47918e-06
-4.47917e-06
-4.47917e-06
-4.47917e-06
-4.47917e-06
-4.47917e-06
-4.47917e-06
-4.47917e-06
-4.47917e-06
-4.47917e-06
-4.47917e-06
-4.47917e-06
-4.47917e-06
-4.47917e-06
-4.47917e-06
-4.47917e-06
-4.47917e-06
-4.47917e-06
-4.47917e-06
-4.47917e-06
-4.47917e-06
-4.47917e-06
-4.47917e-06
-4.47917e-06
-4.47917e-06
-4.47917e-06
-4.47917e-06
-4.47917e-06
-4.47918e-06
-4.47918e-06
-4.47918e-06
-4.47918e-06
-4.47918e-06
-4.47918e-06
-4.47918e-06
-4.47918e-06
-4.47918e-06
-4.47918e-06
-4.47918e-06
-4.47918e-06
-4.47918e-06
-4.47918e-06
-4.47918e-06
-4.47918e-06
-4.47918e-06
-4.47919e-06
-4.47919e-06
-4.47919e-06
-4.47919e-06
-4.47919e-06
-4.47919e-06
-4.47919e-06
-4.47919e-06
-4.47919e-06
-4.47919e-06
-4.47919e-06
-4.47919e-06
-4.47919e-06
-4.47919e-06
-4.47919e-06
-4.47919e-06
-4.47919e-06
-4.47919e-06
-4.47919e-06
-4.47919e-06
-4.47919e-06
-4.47919e-06
-4.47919e-06
-4.47919e-06
-4.47919e-06
-4.4792e-06
-4.4792e-06
-4.47919e-06
-4.47919e-06
-4.47919e-06
-4.47919e-06
-4.47919e-06
-4.47919e-06
-4.47919e-06
-4.47919e-06
-4.47919e-06
-4.47919e-06
-4.47919e-06
-4.47919e-06
-4.4792e-06
-4.47919e-06
-4.47919e-06
-4.4792e-06
-4.4792e-06
-4.4792e-06
-4.4792e-06
-4.4792e-06
-4.47919e-06
-4.47919e-06
-4.4792e-06
-4.47919e-06
-4.47919e-06
-4.47919e-06
-4.47919e-06
-4.47919e-06
-4.47919e-06
-4.47919e-06
-4.47919e-06
-4.47919e-06
-4.47919e-06
-4.47919e-06
-4.47919e-06
-4.47919e-06
-4.47919e-06
-4.47919e-06
-4.47919e-06
-4.47919e-06
-4.47919e-06
-4.47919e-06
-4.47919e-06
-4.47919e-06
-4.47919e-06
-4.47919e-06
-4.47919e-06
-4.47919e-06
-4.47919e-06
-4.47919e-06
-4.47919e-06
-4.47919e-06
-4.47919e-06
-4.47919e-06
-4.47919e-06
-4.47919e-06
-4.47919e-06
-4.47919e-06
-4.47919e-06
-4.47919e-06
-4.47919e-06
-4.47919e-06
-4.47919e-06
-4.47919e-06
-4.47919e-06
-4.47919e-06
-4.47919e-06
-4.47919e-06
-4.47919e-06
-4.47918e-06
-4.47918e-06
-4.47918e-06
-4.47918e-06
-4.47918e-06
-4.47918e-06
-4.47918e-06
-4.47918e-06
-4.47918e-06
-4.47918e-06
-4.47918e-06
-4.47918e-06
-4.47918e-06
-4.47918e-06
-4.47918e-06
-4.47918e-06
-4.47918e-06
-4.47918e-06
-4.47918e-06
-4.47918e-06
-4.47918e-06
-4.47918e-06
-4.47918e-06
-4.47918e-06
-4.47918e-06
-4.47918e-06
-4.47918e-06
-4.47917e-06
-4.47917e-06
-4.47917e-06
-4.47917e-06
-4.47917e-06
-4.47917e-06
-4.47917e-06
-4.47917e-06
-4.47917e-06
-4.47917e-06
-4.47917e-06
-4.47917e-06
-4.47917e-06
-4.47917e-06
-4.47917e-06
-4.47917e-06
-4.47917e-06
-4.47917e-06
-4.47917e-06
-4.47917e-06
-4.47917e-06
-4.47917e-06
-4.47917e-06
-4.47917e-06
-4.47916e-06
-4.47916e-06
-4.47916e-06
-4.47916e-06
-4.47916e-06
-4.47916e-06
-4.47916e-06
-4.47916e-06
-4.47916e-06
-4.47916e-06
-4.47916e-06
-4.47916e-06
-4.47915e-06
-4.47915e-06
-4.47915e-06
-4.47915e-06
-4.47915e-06
-4.47915e-06
-4.47915e-06
-4.47915e-06
-4.47915e-06
-4.47915e-06
-4.47915e-06
-4.47915e-06
-4.47915e-06
-4.47915e-06
-4.47915e-06
-4.47915e-06
-4.47915e-06
-4.47915e-06
-4.47915e-06
-4.47915e-06
-4.47915e-06
-4.47915e-06
-4.47915e-06
-4.47915e-06
-4.47915e-06
-4.47915e-06
-4.47915e-06
-4.47915e-06
-4.47915e-06
-4.47915e-06
-4.47915e-06
-4.47915e-06
-4.47915e-06
-4.47915e-06
-4.47915e-06
-4.47915e-06
-4.47915e-06
-4.47915e-06
-4.47915e-06
-4.47915e-06
-4.47915e-06
-4.47915e-06
-4.47915e-06
-4.47915e-06
-4.47915e-06
-4.47915e-06
-4.47915e-06
-4.47915e-06
-4.47916e-06
-4.47916e-06
-4.47916e-06
-4.47916e-06
-4.47916e-06
-4.47916e-06
-4.47916e-06
-4.47916e-06
-4.47916e-06
-4.47916e-06
-4.47916e-06
-4.47916e-06
-4.47916e-06
-4.47916e-06
-4.47916e-06
-4.47916e-06
-4.47916e-06
-4.47916e-06
-4.47916e-06
-4.47916e-06
-4.47916e-06
-4.47916e-06
-4.47916e-06
-4.47916e-06
-4.47916e-06
-4.47916e-06
-4.47916e-06
-4.47916e-06
-4.47916e-06
-4.47916e-06
-4.47916e-06
-4.47915e-06
-4.47915e-06
-4.47915e-06
-4.47915e-06
-4.47915e-06
-4.47915e-06
-4.47915e-06
-4.47915e-06
-4.47915e-06
-4.47915e-06
-4.47915e-06
-4.47915e-06
-4.47914e-06
-4.47914e-06
-4.47914e-06
-4.47914e-06
-4.47914e-06
-4.47914e-06
-4.47914e-06
-4.47914e-06
-4.47914e-06
-4.47914e-06
-4.47913e-06
-4.47913e-06
-4.47913e-06
-4.47913e-06
-4.47913e-06
-4.47913e-06
-4.47913e-06
-4.47913e-06
-4.47912e-06
-4.47912e-06
-4.47912e-06
-4.47912e-06
-4.47912e-06
-4.47912e-06
-4.47911e-06
-4.47911e-06
-4.47911e-06
-4.47911e-06
-4.47911e-06
-4.47911e-06
-4.47911e-06
-4.47911e-06
-4.4791e-06
-4.4791e-06
-4.4791e-06
-4.4791e-06
-4.4791e-06
-4.4791e-06
-4.4791e-06
-4.4791e-06
-4.47909e-06
-4.47909e-06
-4.47909e-06
-4.47909e-06
-4.47909e-06
-4.47909e-06
-4.47909e-06
-4.47909e-06
-4.47909e-06
-4.47909e-06
-4.47909e-06
-4.47909e-06
-4.47909e-06
-4.47909e-06
-4.47909e-06
-4.47909e-06
-4.47909e-06
-4.47909e-06
-4.47909e-06
-4.47909e-06
-4.47909e-06
-4.47909e-06
-4.47909e-06
-4.47909e-06
-4.47909e-06
-4.4791e-06
-4.4791e-06
-4.4791e-06
-4.4791e-06
-4.4791e-06
-4.47911e-06
-4.47911e-06
-4.47911e-06
-4.47912e-06
-4.47912e-06
-4.47913e-06
-4.47913e-06
-4.47914e-06
-4.47914e-06
-4.47915e-06
-4.47915e-06
-4.47916e-06
-4.47917e-06
-4.47917e-06
-4.47918e-06
-4.47919e-06
-4.4792e-06
-4.47921e-06
-4.47922e-06
-4.47923e-06
-4.47925e-06
-4.47926e-06
-4.47927e-06
-4.47929e-06
-4.47931e-06
-4.47932e-06
-4.47934e-06
-4.47936e-06
-4.47938e-06
-4.47941e-06
-4.47943e-06
-4.47946e-06
-4.47949e-06
-4.47952e-06
-4.47955e-06
-4.47959e-06
-4.47963e-06
-4.47967e-06
-4.47971e-06
-4.47976e-06
-4.47981e-06
-4.47987e-06
-4.47993e-06
-4.47999e-06
-4.48006e-06
-4.48013e-06
-4.48021e-06
-4.4803e-06
-4.48039e-06
-4.48048e-06
-4.48059e-06
-4.4807e-06
-4.48082e-06
-4.48094e-06
-4.48108e-06
-4.48123e-06
-4.48138e-06
-4.48155e-06
-4.48173e-06
-4.48192e-06
-4.48213e-06
-4.48235e-06
-4.48258e-06
-4.48284e-06
-4.4831e-06
-4.48339e-06
-4.48369e-06
-4.48402e-06
-4.48437e-06
-4.48473e-06
-4.48513e-06
-4.48555e-06
-4.486e-06
-4.48647e-06
-4.48698e-06
-4.48752e-06
-4.4881e-06
-4.48871e-06
-4.48936e-06
-4.49005e-06
-4.49078e-06
-4.49156e-06
-4.49239e-06
-4.49327e-06
-4.4942e-06
-4.49519e-06
-4.49624e-06
-4.49735e-06
-4.49853e-06
-4.49978e-06
-4.5011e-06
-4.50249e-06
-4.50397e-06
-4.50554e-06
-4.50719e-06
-4.50893e-06
-4.51078e-06
-4.51273e-06
-4.51478e-06
-4.51695e-06
-4.51925e-06
-4.52166e-06
-4.5242e-06
-4.52689e-06
-4.52971e-06
-4.53269e-06
-4.53582e-06
-4.53911e-06
-4.54257e-06
-4.54622e-06
-4.55004e-06
-4.55406e-06
-4.55829e-06
-4.56272e-06
-4.56738e-06
-4.57226e-06
-4.57738e-06
-4.58275e-06
-4.58837e-06
-4.59426e-06
-4.60043e-06
-4.60689e-06
-4.61365e-06
-4.62072e-06
-4.62811e-06
-4.63584e-06
-4.64392e-06
-4.65235e-06
-4.66116e-06
-4.67035e-06
-4.67994e-06
-4.68994e-06
-4.70037e-06
-4.71124e-06
-4.72257e-06
-4.73437e-06
-4.74665e-06
-4.75944e-06
-4.77274e-06
-4.78658e-06
-4.80096e-06
-4.81592e-06
-4.83145e-06
-4.84759e-06
-4.86434e-06
-4.88174e-06
-4.89978e-06
-4.9185e-06
-4.93791e-06
-4.95803e-06
-4.97887e-06
-5.00047e-06
-5.02283e-06
-5.04599e-06
-5.06995e-06
-5.09474e-06
-5.12037e-06
-5.14688e-06
-5.17428e-06
-5.20259e-06
-5.23183e-06
-5.26203e-06
-5.29321e-06
-5.32538e-06
-5.35857e-06
-5.39281e-06
-5.42811e-06
-5.46451e-06
-5.50201e-06
-5.54064e-06
-5.58044e-06
-5.62141e-06
-5.66359e-06
-5.707e-06
-5.75167e-06
-5.7976e-06
-5.84484e-06
-5.89341e-06
-5.94332e-06
-5.99461e-06
-6.0473e-06
-6.10141e-06
-6.15697e-06
-6.21401e-06
-6.27255e-06
-6.33262e-06
-6.39424e-06
-6.45744e-06
-6.52224e-06
-6.58868e-06
-6.65678e-06
-6.72657e-06
-6.79807e-06
-6.87131e-06
-6.94633e-06
-7.02315e-06
-7.10179e-06
-7.1823e-06
-7.26469e-06
-7.349e-06
-7.43527e-06
-7.52351e-06
-7.61376e-06
-7.70606e-06
-7.80044e-06
-7.89693e-06
-7.99557e-06
-8.09639e-06
-8.19943e-06
-8.30472e-06
-8.4123e-06
-8.52222e-06
-8.63451e-06
-8.74921e-06
-8.86637e-06
-8.98602e-06
-9.10822e-06
-9.23301e-06
-9.36044e-06
-9.49055e-06
-9.6234e-06
-9.75905e-06
-9.89753e-06
-1.00389e-05
-1.01833e-05
-1.03306e-05
-1.0481e-05
-1.06346e-05
-1.07914e-05
-1.09515e-05
-1.1115e-05
-1.1282e-05
-1.14526e-05
-1.16259e-05
-1.1803e-05
-1.19843e-05
-1.21697e-05
-1.23592e-05
-1.2553e-05
-1.2751e-05
-1.29533e-05
-1.316e-05
-1.3371e-05
-1.35867e-05
-1.38069e-05
-1.40318e-05
-1.42615e-05
-1.44959e-05
-1.47353e-05
-1.49794e-05
-1.52284e-05
-1.54822e-05
-1.57405e-05
-1.60033e-05
-1.62703e-05
-1.6541e-05
-1.68151e-05
-1.70918e-05
-1.73704e-05
-1.76498e-05
-1.79287e-05
-1.82055e-05
-1.84781e-05
-1.8744e-05
-1.90003e-05
-1.92431e-05
-1.9468e-05
-1.96695e-05
-1.98413e-05
-1.99757e-05
-2.0064e-05
)
;

boundaryField
{
    fixedWall
    {
        type            calculated;
        value           uniform 0;
    }
    outlet
    {
        type            calculated;
        value           uniform -2.00959e-05;
    }
    defaultFaces
    {
        type            empty;
    }
}


// ************************************************************************* //
