/*--------------------------------*- C++ -*----------------------------------*\
| =========                 |                                                 |
| \\      /  F ield         | OpenFOAM: The Open Source CFD Toolbox           |
|  \\    /   O peration     | Version:  2406                                  |
|   \\  /    A nd           | Website:  www.openfoam.com                      |
|    \\/     M anipulation  |                                                 |
\*---------------------------------------------------------------------------*/
FoamFile
{
    version     2.0;
    format      ascii;
    arch        "LSB;label=32;scalar=64";
    class       volScalarField;
    location    "2.7";
    object      CO2;
}
// * * * * * * * * * * * * * * * * * * * * * * * * * * * * * * * * * * * * * //

dimensions      [0 0 0 0 0 0 0];

internalField   nonuniform List<scalar> 
1000
(
0.0709257
0.0709257
0.0709257
0.0709257
0.0709257
0.0709257
0.0709257
0.0709257
0.0709257
0.0709258
0.0709258
0.0709258
0.0709258
0.0709258
0.0709258
0.0709258
0.0709258
0.0709259
0.0709259
0.0709259
0.0709259
0.0709259
0.0709259
0.070926
0.070926
0.070926
0.070926
0.070926
0.070926
0.0709261
0.0709261
0.0709261
0.0709261
0.0709261
0.0709261
0.0709261
0.0709261
0.0709262
0.0709262
0.0709262
0.0709262
0.0709262
0.0709262
0.0709262
0.0709262
0.0709262
0.0709262
0.0709262
0.0709262
0.0709262
0.0709263
0.0709263
0.0709263
0.0709263
0.0709263
0.0709263
0.0709263
0.0709263
0.0709263
0.0709263
0.0709263
0.0709263
0.0709263
0.0709263
0.0709263
0.0709263
0.0709263
0.0709263
0.0709263
0.0709263
0.0709263
0.0709263
0.0709263
0.0709263
0.0709263
0.0709263
0.0709263
0.0709263
0.0709263
0.0709263
0.0709263
0.0709263
0.0709263
0.0709262
0.0709262
0.0709262
0.0709262
0.0709262
0.0709262
0.0709262
0.0709262
0.0709262
0.0709262
0.0709262
0.0709262
0.0709262
0.0709262
0.0709262
0.0709262
0.0709262
0.0709262
0.0709262
0.0709262
0.0709262
0.0709262
0.0709262
0.0709262
0.0709262
0.0709262
0.0709262
0.0709262
0.0709262
0.0709262
0.0709262
0.0709262
0.0709262
0.0709262
0.0709262
0.0709262
0.0709262
0.0709262
0.0709262
0.0709262
0.0709262
0.0709262
0.0709262
0.0709262
0.0709262
0.0709262
0.0709261
0.0709261
0.0709261
0.0709261
0.0709261
0.0709261
0.0709261
0.0709261
0.0709261
0.0709261
0.0709261
0.0709261
0.0709261
0.0709261
0.0709261
0.0709261
0.0709261
0.0709261
0.0709261
0.0709261
0.0709261
0.0709261
0.0709261
0.0709261
0.0709261
0.0709261
0.0709261
0.0709261
0.0709261
0.0709261
0.0709261
0.0709261
0.0709261
0.0709261
0.0709261
0.070926
0.070926
0.070926
0.070926
0.070926
0.070926
0.070926
0.070926
0.070926
0.070926
0.070926
0.070926
0.070926
0.070926
0.070926
0.070926
0.070926
0.070926
0.070926
0.070926
0.070926
0.070926
0.070926
0.070926
0.070926
0.070926
0.070926
0.070926
0.0709259
0.0709259
0.0709259
0.0709259
0.0709259
0.0709259
0.0709259
0.0709259
0.0709259
0.0709259
0.0709259
0.0709259
0.0709259
0.0709259
0.0709259
0.0709259
0.0709259
0.0709259
0.0709259
0.0709259
0.0709259
0.0709259
0.0709258
0.0709258
0.0709258
0.0709258
0.0709258
0.0709258
0.0709258
0.0709258
0.0709258
0.0709258
0.0709258
0.0709258
0.0709258
0.0709258
0.0709258
0.0709258
0.0709258
0.0709258
0.0709257
0.0709257
0.0709257
0.0709257
0.0709257
0.0709257
0.0709257
0.0709257
0.0709257
0.0709257
0.0709257
0.0709257
0.0709257
0.0709257
0.0709257
0.0709256
0.0709256
0.0709256
0.0709256
0.0709256
0.0709256
0.0709256
0.0709256
0.0709256
0.0709256
0.0709256
0.0709256
0.0709256
0.0709255
0.0709255
0.0709255
0.0709255
0.0709255
0.0709255
0.0709255
0.0709255
0.0709255
0.0709255
0.0709255
0.0709254
0.0709254
0.0709254
0.0709254
0.0709254
0.0709254
0.0709254
0.0709254
0.0709254
0.0709254
0.0709253
0.0709253
0.0709253
0.0709253
0.0709253
0.0709253
0.0709253
0.0709253
0.0709253
0.0709252
0.0709252
0.0709252
0.0709252
0.0709252
0.0709252
0.0709252
0.0709251
0.0709251
0.0709251
0.0709251
0.0709251
0.0709251
0.0709251
0.070925
0.070925
0.070925
0.070925
0.070925
0.070925
0.0709249
0.0709249
0.0709249
0.0709249
0.0709249
0.0709248
0.0709248
0.0709248
0.0709248
0.0709248
0.0709247
0.0709247
0.0709247
0.0709247
0.0709246
0.0709246
0.0709246
0.0709246
0.0709245
0.0709245
0.0709245
0.0709245
0.0709244
0.0709244
0.0709244
0.0709243
0.0709243
0.0709243
0.0709243
0.0709242
0.0709242
0.0709242
0.0709241
0.0709241
0.070924
0.070924
0.070924
0.0709239
0.0709239
0.0709238
0.0709238
0.0709237
0.0709237
0.0709236
0.0709236
0.0709235
0.0709235
0.0709234
0.0709234
0.0709233
0.0709232
0.0709232
0.0709231
0.070923
0.070923
0.0709229
0.0709228
0.0709227
0.0709227
0.0709226
0.0709225
0.0709224
0.0709223
0.0709222
0.0709221
0.070922
0.0709219
0.0709217
0.0709216
0.0709215
0.0709213
0.0709212
0.070921
0.0709209
0.0709207
0.0709205
0.0709203
0.0709201
0.0709199
0.0709196
0.0709194
0.0709191
0.0709188
0.0709185
0.0709182
0.0709178
0.0709174
0.070917
0.0709165
0.070916
0.0709154
0.0709148
0.0709141
0.0709133
0.0709125
0.0709115
0.0709104
0.0709091
0.0709076
0.0709058
0.0709038
0.0709013
0.0708983
0.0708945
0.0708896
0.0708834
0.0708749
0.0708631
0.0708453
0.0708161
0.0707617
0.0706429
0.0703286
0.0693427
0.0658214
0.0503583
0.0250724
0.0123408
0.00607834
0.00299934
0.00148273
0.000734199
0.000364055
0.000180716
8.97801e-05
4.46301e-05
2.21962e-05
1.10433e-05
5.49647e-06
2.73674e-06
1.3632e-06
6.79326e-07
3.38698e-07
1.68962e-07
8.43603e-08
4.21538e-08
2.10966e-08
1.05905e-08
5.34435e-09
2.70519e-09
1.3617e-09
9.13307e-10
6.14955e-10
3.54152e-10
2.33406e-10
1.72326e-10
1.51746e-10
1.31522e-10
1.19802e-10
1.15485e-10
1.1334e-10
1.11392e-10
1.10358e-10
1.09814e-10
1.09481e-10
1.09376e-10
1.09263e-10
1.09218e-10
1.09181e-10
1.0916e-10
1.09149e-10
1.09143e-10
1.09138e-10
1.09137e-10
1.09136e-10
1.09135e-10
1.09135e-10
1.09135e-10
1.09135e-10
1.09135e-10
1.09135e-10
1.09135e-10
1.09136e-10
1.09136e-10
1.09136e-10
1.09137e-10
1.09137e-10
1.09137e-10
1.09137e-10
1.09138e-10
1.09138e-10
1.09138e-10
1.09138e-10
1.09138e-10
1.09139e-10
1.09139e-10
1.09139e-10
1.0914e-10
1.0914e-10
1.0914e-10
1.0914e-10
1.09141e-10
1.09141e-10
1.09141e-10
1.09141e-10
1.09142e-10
1.09142e-10
1.09142e-10
1.09142e-10
1.09142e-10
1.09143e-10
1.09143e-10
1.09143e-10
1.09143e-10
1.09144e-10
1.09144e-10
1.09144e-10
1.09144e-10
1.09145e-10
1.09145e-10
1.09145e-10
1.09146e-10
1.09146e-10
1.09146e-10
1.09146e-10
1.09147e-10
1.09147e-10
1.09147e-10
1.09147e-10
1.09148e-10
1.09148e-10
1.09148e-10
1.09148e-10
1.09149e-10
1.09149e-10
1.09149e-10
1.09149e-10
1.0915e-10
1.0915e-10
1.0915e-10
1.0915e-10
1.09151e-10
1.09151e-10
1.09151e-10
1.09151e-10
1.09152e-10
1.09152e-10
1.09152e-10
1.09152e-10
1.09153e-10
1.09153e-10
1.09153e-10
1.09153e-10
1.09154e-10
1.09154e-10
1.09154e-10
1.09154e-10
1.09155e-10
1.09155e-10
1.09155e-10
1.09155e-10
1.09156e-10
1.09156e-10
1.09156e-10
1.09156e-10
1.09157e-10
1.09157e-10
1.09157e-10
1.09157e-10
1.09158e-10
1.09158e-10
1.09158e-10
1.09158e-10
1.09159e-10
1.09159e-10
1.09159e-10
1.09159e-10
1.0916e-10
1.0916e-10
1.0916e-10
1.0916e-10
1.09161e-10
1.09161e-10
1.09161e-10
1.09162e-10
1.09162e-10
1.09162e-10
1.09162e-10
1.09163e-10
1.09163e-10
1.09163e-10
1.09163e-10
1.09164e-10
1.09164e-10
1.09164e-10
1.09164e-10
1.09165e-10
1.09165e-10
1.09165e-10
1.09165e-10
1.09166e-10
1.09166e-10
1.09166e-10
1.09166e-10
1.09167e-10
1.09167e-10
1.09167e-10
1.09167e-10
1.09168e-10
1.09168e-10
1.09168e-10
1.09168e-10
1.09169e-10
1.09169e-10
1.09169e-10
1.0917e-10
1.0917e-10
1.0917e-10
1.0917e-10
1.09171e-10
1.09171e-10
1.09171e-10
1.09171e-10
1.09172e-10
1.09172e-10
1.09172e-10
1.09172e-10
1.09173e-10
1.09173e-10
1.09173e-10
1.09173e-10
1.09174e-10
1.09174e-10
1.09174e-10
1.09174e-10
1.09175e-10
1.09175e-10
1.09175e-10
1.09175e-10
1.09176e-10
1.09176e-10
1.09176e-10
1.09177e-10
1.09177e-10
1.09177e-10
1.09178e-10
1.09178e-10
1.09178e-10
1.09178e-10
1.09179e-10
1.09179e-10
1.09179e-10
1.0918e-10
1.0918e-10
1.0918e-10
1.0918e-10
1.0918e-10
1.09181e-10
1.09181e-10
1.09181e-10
1.09181e-10
1.09182e-10
1.09182e-10
1.09182e-10
1.09182e-10
1.09183e-10
1.09183e-10
1.09183e-10
1.09184e-10
1.09184e-10
1.09184e-10
1.09184e-10
1.09185e-10
1.09185e-10
1.09185e-10
1.09185e-10
1.09186e-10
1.09186e-10
1.09186e-10
1.09186e-10
1.09187e-10
1.09187e-10
1.09187e-10
1.09188e-10
1.09188e-10
1.09188e-10
1.09189e-10
1.09189e-10
1.09189e-10
1.09189e-10
1.0919e-10
1.0919e-10
1.0919e-10
1.0919e-10
1.09191e-10
1.09191e-10
1.09191e-10
1.09191e-10
1.09192e-10
1.09192e-10
1.09192e-10
1.09193e-10
1.09193e-10
1.09193e-10
1.09193e-10
1.09194e-10
1.09194e-10
1.09194e-10
1.09194e-10
1.09195e-10
1.09195e-10
1.09195e-10
1.09196e-10
1.09196e-10
1.09196e-10
1.09196e-10
1.09197e-10
1.09197e-10
1.09197e-10
1.09198e-10
1.09198e-10
1.09198e-10
1.09198e-10
1.09199e-10
1.09199e-10
1.09199e-10
1.09199e-10
1.092e-10
1.092e-10
1.092e-10
1.092e-10
1.09201e-10
1.09201e-10
1.09201e-10
1.09202e-10
1.09202e-10
1.09202e-10
1.09202e-10
1.09203e-10
1.09203e-10
1.09203e-10
1.09204e-10
1.09204e-10
1.09204e-10
1.09204e-10
1.09205e-10
1.09205e-10
1.09205e-10
1.09205e-10
1.09206e-10
1.09206e-10
1.09206e-10
1.09207e-10
1.09207e-10
1.09207e-10
1.09207e-10
1.09208e-10
1.09208e-10
1.09208e-10
1.09209e-10
1.09209e-10
1.09209e-10
1.09209e-10
1.0921e-10
1.0921e-10
1.0921e-10
1.0921e-10
1.09211e-10
1.09211e-10
1.09211e-10
1.09212e-10
1.09212e-10
1.09212e-10
1.09213e-10
1.09213e-10
1.09213e-10
1.09213e-10
1.09214e-10
1.09214e-10
1.09214e-10
1.09214e-10
1.09215e-10
1.09215e-10
1.09215e-10
1.09215e-10
1.09216e-10
1.09216e-10
1.09216e-10
1.09217e-10
1.09217e-10
1.09217e-10
1.09217e-10
1.09218e-10
1.09218e-10
1.09218e-10
1.09219e-10
1.09219e-10
1.09219e-10
1.09219e-10
1.0922e-10
1.0922e-10
1.0922e-10
1.09221e-10
1.09221e-10
1.09221e-10
1.09221e-10
1.09222e-10
1.09222e-10
1.09222e-10
1.09223e-10
1.09223e-10
1.09223e-10
1.09223e-10
1.09224e-10
1.09224e-10
1.09224e-10
1.09225e-10
1.09225e-10
1.09225e-10
1.09225e-10
1.09225e-10
1.09226e-10
1.09226e-10
1.09226e-10
1.09227e-10
1.09227e-10
1.09227e-10
1.09228e-10
1.09228e-10
1.09228e-10
1.09228e-10
1.09229e-10
1.09229e-10
1.09229e-10
1.09229e-10
1.0923e-10
1.0923e-10
1.0923e-10
1.09231e-10
1.09231e-10
1.09231e-10
1.09232e-10
1.09232e-10
1.09232e-10
1.09232e-10
1.09233e-10
1.09233e-10
1.09233e-10
1.09234e-10
1.09234e-10
1.09234e-10
1.09234e-10
1.09235e-10
1.09235e-10
1.09235e-10
1.09235e-10
1.09236e-10
1.09236e-10
1.09236e-10
1.09237e-10
1.09237e-10
1.09237e-10
1.09237e-10
1.09238e-10
1.09238e-10
1.09238e-10
1.09239e-10
1.09239e-10
1.09239e-10
1.0924e-10
1.0924e-10
1.0924e-10
1.0924e-10
1.09241e-10
1.09241e-10
1.09241e-10
1.09242e-10
1.09242e-10
1.09242e-10
1.09242e-10
1.09243e-10
1.09243e-10
1.09243e-10
1.09244e-10
1.09244e-10
1.09244e-10
1.09244e-10
1.09245e-10
1.09245e-10
1.09245e-10
1.09245e-10
1.09246e-10
1.09246e-10
1.09246e-10
1.09246e-10
1.09247e-10
1.09247e-10
1.09247e-10
1.09248e-10
1.09248e-10
1.09248e-10
1.09248e-10
1.09249e-10
1.09249e-10
1.09249e-10
1.0925e-10
1.0925e-10
1.0925e-10
1.09251e-10
1.09251e-10
1.09251e-10
1.09252e-10
1.09252e-10
1.09252e-10
1.09252e-10
1.09253e-10
1.09253e-10
1.09253e-10
1.09254e-10
1.09254e-10
1.09254e-10
1.09255e-10
1.09255e-10
1.09255e-10
1.09255e-10
1.09256e-10
1.09256e-10
1.09256e-10
1.09257e-10
1.09257e-10
1.09257e-10
1.09257e-10
1.09258e-10
1.09258e-10
1.09258e-10
1.09258e-10
1.09259e-10
1.09259e-10
1.09259e-10
1.0926e-10
1.0926e-10
1.0926e-10
1.0926e-10
1.09261e-10
1.09261e-10
1.09261e-10
1.09262e-10
1.09262e-10
1.09262e-10
1.09262e-10
1.09263e-10
1.09263e-10
1.09263e-10
1.09264e-10
1.09264e-10
1.09264e-10
1.09264e-10
1.09265e-10
1.09265e-10
1.09265e-10
1.09266e-10
1.09266e-10
1.09266e-10
1.09267e-10
1.09267e-10
1.09267e-10
1.09267e-10
1.09268e-10
1.09268e-10
1.09268e-10
1.09269e-10
1.09269e-10
1.09269e-10
1.0927e-10
1.0927e-10
1.0927e-10
1.09271e-10
1.09271e-10
1.09271e-10
1.09271e-10
1.09272e-10
1.09272e-10
1.09272e-10
1.09273e-10
1.09273e-10
1.09273e-10
1.09274e-10
1.09274e-10
1.09274e-10
1.09275e-10
1.09275e-10
1.09275e-10
1.09275e-10
1.09276e-10
1.09276e-10
1.09276e-10
1.09276e-10
1.09277e-10
1.09277e-10
1.09277e-10
)
;

boundaryField
{
    fixedWall
    {
        type            zeroGradient;
    }
    outlet
    {
        type            inletOutlet;
        inletValue      uniform 0;
        value           uniform 1.09277e-10;
    }
    defaultFaces
    {
        type            empty;
    }
}


// ************************************************************************* //
