/*--------------------------------*- C++ -*----------------------------------*\
| =========                 |                                                 |
| \\      /  F ield         | OpenFOAM: The Open Source CFD Toolbox           |
|  \\    /   O peration     | Version:  2406                                  |
|   \\  /    A nd           | Website:  www.openfoam.com                      |
|    \\/     M anipulation  |                                                 |
\*---------------------------------------------------------------------------*/
FoamFile
{
    version     2.0;
    format      ascii;
    arch        "LSB;label=32;scalar=64";
    class       volScalarField;
    location    "2.7";
    object      H2O;
}
// * * * * * * * * * * * * * * * * * * * * * * * * * * * * * * * * * * * * * //

dimensions      [0 0 0 0 0 0 0];

internalField   nonuniform List<scalar> 
1000
(
0.0580662
0.0580662
0.0580662
0.0580663
0.0580663
0.0580663
0.0580663
0.0580663
0.0580663
0.0580663
0.0580663
0.0580663
0.0580663
0.0580663
0.0580663
0.0580664
0.0580664
0.0580664
0.0580664
0.0580664
0.0580664
0.0580664
0.0580664
0.0580665
0.0580665
0.0580665
0.0580665
0.0580665
0.0580665
0.0580665
0.0580666
0.0580666
0.0580666
0.0580666
0.0580666
0.0580666
0.0580666
0.0580666
0.0580666
0.0580666
0.0580666
0.0580667
0.0580667
0.0580667
0.0580667
0.0580667
0.0580667
0.0580667
0.0580667
0.0580667
0.0580667
0.0580667
0.0580667
0.0580667
0.0580667
0.0580667
0.0580667
0.0580667
0.0580667
0.0580667
0.0580667
0.0580667
0.0580667
0.0580667
0.0580667
0.0580667
0.0580667
0.0580667
0.0580667
0.0580667
0.0580667
0.0580667
0.0580667
0.0580667
0.0580667
0.0580667
0.0580667
0.0580667
0.0580667
0.0580667
0.0580667
0.0580667
0.0580667
0.0580667
0.0580667
0.0580667
0.0580667
0.0580667
0.0580667
0.0580667
0.0580667
0.0580667
0.0580667
0.0580667
0.0580667
0.0580667
0.0580667
0.0580667
0.0580667
0.0580667
0.0580667
0.0580667
0.0580667
0.0580667
0.0580667
0.0580667
0.0580667
0.0580667
0.0580667
0.0580667
0.0580667
0.0580666
0.0580666
0.0580666
0.0580666
0.0580666
0.0580666
0.0580666
0.0580666
0.0580666
0.0580666
0.0580666
0.0580666
0.0580666
0.0580666
0.0580666
0.0580666
0.0580666
0.0580666
0.0580666
0.0580666
0.0580666
0.0580666
0.0580666
0.0580666
0.0580666
0.0580666
0.0580666
0.0580666
0.0580666
0.0580666
0.0580666
0.0580666
0.0580666
0.0580666
0.0580666
0.0580666
0.0580666
0.0580666
0.0580666
0.0580666
0.0580666
0.0580666
0.0580666
0.0580666
0.0580666
0.0580666
0.0580666
0.0580665
0.0580665
0.0580665
0.0580665
0.0580665
0.0580665
0.0580665
0.0580665
0.0580665
0.0580665
0.0580665
0.0580665
0.0580665
0.0580665
0.0580665
0.0580665
0.0580665
0.0580665
0.0580665
0.0580665
0.0580665
0.0580665
0.0580665
0.0580665
0.0580665
0.0580665
0.0580665
0.0580665
0.0580665
0.0580665
0.0580665
0.0580665
0.0580665
0.0580665
0.0580664
0.0580664
0.0580664
0.0580664
0.0580664
0.0580664
0.0580664
0.0580664
0.0580664
0.0580664
0.0580664
0.0580664
0.0580664
0.0580664
0.0580664
0.0580664
0.0580664
0.0580664
0.0580664
0.0580664
0.0580664
0.0580664
0.0580664
0.0580664
0.0580664
0.0580664
0.0580664
0.0580663
0.0580663
0.0580663
0.0580663
0.0580663
0.0580663
0.0580663
0.0580663
0.0580663
0.0580663
0.0580663
0.0580663
0.0580663
0.0580663
0.0580663
0.0580663
0.0580663
0.0580663
0.0580663
0.0580663
0.0580663
0.0580662
0.0580662
0.0580662
0.0580662
0.0580662
0.0580662
0.0580662
0.0580662
0.0580662
0.0580662
0.0580662
0.0580662
0.0580662
0.0580662
0.0580662
0.0580662
0.0580662
0.0580661
0.0580661
0.0580661
0.0580661
0.0580661
0.0580661
0.0580661
0.0580661
0.0580661
0.0580661
0.0580661
0.0580661
0.0580661
0.0580661
0.058066
0.058066
0.058066
0.058066
0.058066
0.058066
0.058066
0.058066
0.058066
0.058066
0.058066
0.0580659
0.0580659
0.0580659
0.0580659
0.0580659
0.0580659
0.0580659
0.0580659
0.0580659
0.0580659
0.0580658
0.0580658
0.0580658
0.0580658
0.0580658
0.0580658
0.0580658
0.0580658
0.0580658
0.0580657
0.0580657
0.0580657
0.0580657
0.0580657
0.0580657
0.0580657
0.0580657
0.0580656
0.0580656
0.0580656
0.0580656
0.0580656
0.0580656
0.0580655
0.0580655
0.0580655
0.0580655
0.0580655
0.0580655
0.0580654
0.0580654
0.0580654
0.0580654
0.0580654
0.0580653
0.0580653
0.0580653
0.0580653
0.0580653
0.0580652
0.0580652
0.0580652
0.0580652
0.0580651
0.0580651
0.0580651
0.0580651
0.058065
0.058065
0.058065
0.0580649
0.0580649
0.0580649
0.0580649
0.0580648
0.0580648
0.0580648
0.0580647
0.0580647
0.0580646
0.0580646
0.0580646
0.0580645
0.0580645
0.0580644
0.0580644
0.0580643
0.0580643
0.0580642
0.0580642
0.0580641
0.0580641
0.058064
0.058064
0.0580639
0.0580638
0.0580638
0.0580637
0.0580636
0.0580635
0.0580635
0.0580634
0.0580633
0.0580632
0.0580631
0.058063
0.0580629
0.0580628
0.0580627
0.0580626
0.0580624
0.0580623
0.0580621
0.058062
0.0580618
0.0580617
0.0580615
0.0580613
0.0580611
0.0580609
0.0580606
0.0580604
0.0580601
0.0580598
0.0580595
0.0580591
0.0580587
0.0580583
0.0580578
0.0580573
0.0580568
0.0580561
0.0580554
0.0580546
0.0580537
0.0580526
0.0580514
0.05805
0.0580483
0.0580463
0.0580438
0.0580407
0.0580367
0.0580316
0.0580247
0.058015
0.0580005
0.0579765
0.057932
0.0578347
0.0575774
0.0567702
0.0538874
0.0412279
0.0205266
0.0101033
0.00497628
0.00245553
0.0012139
0.000601082
0.000298049
0.00014795
7.35022e-05
3.65382e-05
1.81718e-05
9.04107e-06
4.49991e-06
2.24054e-06
1.11604e-06
5.56158e-07
2.77289e-07
1.38328e-07
6.9065e-08
3.4511e-08
1.72716e-08
8.67035e-09
4.37537e-09
2.21472e-09
1.11481e-09
7.47717e-10
5.03459e-10
2.89941e-10
1.91087e-10
1.41082e-10
1.24233e-10
1.07676e-10
9.8081e-11
9.45464e-11
9.27907e-11
9.11959e-11
9.03495e-11
8.99034e-11
8.96307e-11
8.95449e-11
8.94526e-11
8.94161e-11
8.93858e-11
8.93685e-11
8.93596e-11
8.93541e-11
8.93507e-11
8.93494e-11
8.93484e-11
8.93479e-11
8.93478e-11
8.93478e-11
8.93479e-11
8.9348e-11
8.93481e-11
8.93483e-11
8.93485e-11
8.93486e-11
8.93489e-11
8.93491e-11
8.93493e-11
8.93495e-11
8.93497e-11
8.935e-11
8.93501e-11
8.93503e-11
8.93504e-11
8.93507e-11
8.93509e-11
8.93511e-11
8.93513e-11
8.93517e-11
8.93519e-11
8.93521e-11
8.93522e-11
8.93524e-11
8.93526e-11
8.93528e-11
8.9353e-11
8.93532e-11
8.93534e-11
8.93535e-11
8.93537e-11
8.9354e-11
8.93542e-11
8.93545e-11
8.93546e-11
8.93548e-11
8.9355e-11
8.93552e-11
8.93554e-11
8.93556e-11
8.93559e-11
8.93561e-11
8.93563e-11
8.93565e-11
8.93567e-11
8.93569e-11
8.93571e-11
8.93573e-11
8.93575e-11
8.93578e-11
8.9358e-11
8.93582e-11
8.93584e-11
8.93586e-11
8.93588e-11
8.9359e-11
8.93592e-11
8.93594e-11
8.93596e-11
8.93599e-11
8.936e-11
8.93603e-11
8.93604e-11
8.93607e-11
8.93609e-11
8.93611e-11
8.93613e-11
8.93614e-11
8.93616e-11
8.93619e-11
8.93622e-11
8.93623e-11
8.93625e-11
8.93627e-11
8.93629e-11
8.93631e-11
8.93633e-11
8.93635e-11
8.93637e-11
8.93639e-11
8.93641e-11
8.93644e-11
8.93645e-11
8.93648e-11
8.9365e-11
8.93651e-11
8.93653e-11
8.93655e-11
8.93658e-11
8.93661e-11
8.93663e-11
8.93665e-11
8.93666e-11
8.93668e-11
8.9367e-11
8.93672e-11
8.93675e-11
8.93677e-11
8.93679e-11
8.9368e-11
8.93684e-11
8.93685e-11
8.93687e-11
8.93689e-11
8.93691e-11
8.93694e-11
8.93696e-11
8.93698e-11
8.937e-11
8.93702e-11
8.93704e-11
8.93707e-11
8.93709e-11
8.9371e-11
8.93712e-11
8.93715e-11
8.93717e-11
8.93719e-11
8.93721e-11
8.93723e-11
8.93726e-11
8.93728e-11
8.9373e-11
8.93732e-11
8.93734e-11
8.93736e-11
8.93738e-11
8.9374e-11
8.93742e-11
8.93744e-11
8.93747e-11
8.93748e-11
8.93751e-11
8.93753e-11
8.93756e-11
8.93757e-11
8.93759e-11
8.93761e-11
8.93764e-11
8.93765e-11
8.93768e-11
8.9377e-11
8.93772e-11
8.93774e-11
8.93775e-11
8.93778e-11
8.9378e-11
8.93782e-11
8.93784e-11
8.93786e-11
8.93789e-11
8.93791e-11
8.93793e-11
8.93795e-11
8.93797e-11
8.93799e-11
8.93801e-11
8.93803e-11
8.93806e-11
8.93808e-11
8.9381e-11
8.93812e-11
8.93814e-11
8.93816e-11
8.93819e-11
8.93822e-11
8.93824e-11
8.93827e-11
8.93829e-11
8.93831e-11
8.93835e-11
8.93837e-11
8.93839e-11
8.9384e-11
8.93843e-11
8.93845e-11
8.93847e-11
8.93849e-11
8.93851e-11
8.93853e-11
8.93855e-11
8.93857e-11
8.93859e-11
8.93862e-11
8.93864e-11
8.93866e-11
8.93867e-11
8.93871e-11
8.93872e-11
8.93874e-11
8.93877e-11
8.93879e-11
8.93881e-11
8.93883e-11
8.93885e-11
8.93887e-11
8.93889e-11
8.93891e-11
8.93894e-11
8.93896e-11
8.93898e-11
8.939e-11
8.93902e-11
8.93905e-11
8.93907e-11
8.9391e-11
8.93912e-11
8.93914e-11
8.93917e-11
8.93919e-11
8.93921e-11
8.93924e-11
8.93925e-11
8.93928e-11
8.9393e-11
8.93933e-11
8.93935e-11
8.93937e-11
8.93938e-11
8.93941e-11
8.93943e-11
8.93946e-11
8.93948e-11
8.9395e-11
8.93952e-11
8.93953e-11
8.93956e-11
8.93959e-11
8.93961e-11
8.93963e-11
8.93965e-11
8.93967e-11
8.9397e-11
8.93973e-11
8.93975e-11
8.93976e-11
8.93979e-11
8.93982e-11
8.93984e-11
8.93986e-11
8.93989e-11
8.93991e-11
8.93993e-11
8.93996e-11
8.93997e-11
8.93999e-11
8.94002e-11
8.94003e-11
8.94005e-11
8.94008e-11
8.9401e-11
8.94012e-11
8.94015e-11
8.94018e-11
8.9402e-11
8.94022e-11
8.94025e-11
8.94027e-11
8.94029e-11
8.9403e-11
8.94033e-11
8.94035e-11
8.94037e-11
8.9404e-11
8.94042e-11
8.94045e-11
8.94047e-11
8.94049e-11
8.94051e-11
8.94054e-11
8.94056e-11
8.94058e-11
8.9406e-11
8.94062e-11
8.94065e-11
8.94067e-11
8.9407e-11
8.94072e-11
8.94074e-11
8.94076e-11
8.94078e-11
8.94081e-11
8.94083e-11
8.94085e-11
8.94087e-11
8.9409e-11
8.94091e-11
8.94094e-11
8.94096e-11
8.94099e-11
8.94102e-11
8.94103e-11
8.94106e-11
8.94108e-11
8.9411e-11
8.94113e-11
8.94115e-11
8.94117e-11
8.94119e-11
8.94122e-11
8.94124e-11
8.94127e-11
8.94129e-11
8.94131e-11
8.94134e-11
8.94135e-11
8.94138e-11
8.9414e-11
8.94143e-11
8.94145e-11
8.94147e-11
8.9415e-11
8.94152e-11
8.94154e-11
8.94156e-11
8.94158e-11
8.94161e-11
8.94163e-11
8.94165e-11
8.94167e-11
8.9417e-11
8.94172e-11
8.94174e-11
8.94177e-11
8.94179e-11
8.94182e-11
8.94183e-11
8.94187e-11
8.94188e-11
8.9419e-11
8.94193e-11
8.94195e-11
8.94197e-11
8.942e-11
8.94202e-11
8.94204e-11
8.94206e-11
8.94209e-11
8.94211e-11
8.94213e-11
8.94216e-11
8.94218e-11
8.94219e-11
8.94223e-11
8.94224e-11
8.94227e-11
8.94229e-11
8.94232e-11
8.94234e-11
8.94236e-11
8.94238e-11
8.94241e-11
8.94243e-11
8.94245e-11
8.94248e-11
8.9425e-11
8.94252e-11
8.94255e-11
8.94257e-11
8.94259e-11
8.94262e-11
8.94264e-11
8.94267e-11
8.94269e-11
8.94272e-11
8.94273e-11
8.94275e-11
8.94278e-11
8.9428e-11
8.94282e-11
8.94286e-11
8.94289e-11
8.9429e-11
8.94292e-11
8.94294e-11
8.94297e-11
8.94299e-11
8.94301e-11
8.94304e-11
8.94306e-11
8.94308e-11
8.94311e-11
8.94313e-11
8.94315e-11
8.94317e-11
8.9432e-11
8.94322e-11
8.94323e-11
8.94327e-11
8.94329e-11
8.94332e-11
8.94334e-11
8.94337e-11
8.94339e-11
8.94341e-11
8.94344e-11
8.94346e-11
8.94348e-11
8.94351e-11
8.94353e-11
8.94356e-11
8.94357e-11
8.9436e-11
8.94362e-11
8.94365e-11
8.94367e-11
8.94369e-11
8.94371e-11
8.94374e-11
8.94376e-11
8.94378e-11
8.94381e-11
8.94383e-11
8.94385e-11
8.94388e-11
8.94389e-11
8.94391e-11
8.94394e-11
8.94396e-11
8.94399e-11
8.94401e-11
8.94404e-11
8.94406e-11
8.94408e-11
8.9441e-11
8.94413e-11
8.94416e-11
8.94418e-11
8.9442e-11
8.94423e-11
8.94425e-11
8.94427e-11
8.94429e-11
8.94433e-11
8.94435e-11
8.94438e-11
8.9444e-11
8.94443e-11
8.94445e-11
8.94447e-11
8.94451e-11
8.94453e-11
8.94455e-11
8.94458e-11
8.9446e-11
8.94462e-11
8.94464e-11
8.94466e-11
8.94469e-11
8.94471e-11
8.94474e-11
8.94476e-11
8.94478e-11
8.9448e-11
8.94483e-11
8.94485e-11
8.94487e-11
8.94489e-11
8.94492e-11
8.94494e-11
8.94495e-11
8.94499e-11
8.94501e-11
8.94503e-11
8.94505e-11
8.94508e-11
8.9451e-11
8.94512e-11
8.94515e-11
8.94517e-11
8.9452e-11
8.94522e-11
8.94524e-11
8.94526e-11
8.94528e-11
8.94532e-11
8.94534e-11
8.94536e-11
8.94539e-11
8.94541e-11
8.94543e-11
8.94546e-11
8.94549e-11
8.94551e-11
8.94553e-11
8.94556e-11
8.94557e-11
8.9456e-11
8.94563e-11
8.94565e-11
8.94568e-11
8.94571e-11
8.94574e-11
8.94576e-11
8.94579e-11
8.94581e-11
8.94583e-11
8.94585e-11
8.94588e-11
8.9459e-11
8.94593e-11
8.94595e-11
8.94598e-11
8.946e-11
8.94603e-11
8.94606e-11
8.94608e-11
8.94611e-11
8.94614e-11
8.94617e-11
8.94619e-11
8.94623e-11
8.94625e-11
8.94626e-11
8.94629e-11
8.9463e-11
8.94633e-11
8.94635e-11
8.94637e-11
8.94639e-11
8.94641e-11
8.94644e-11
)
;

boundaryField
{
    fixedWall
    {
        type            zeroGradient;
    }
    outlet
    {
        type            inletOutlet;
        inletValue      uniform 0;
        value           uniform 8.94644e-11;
    }
    defaultFaces
    {
        type            empty;
    }
}


// ************************************************************************* //
