/*--------------------------------*- C++ -*----------------------------------*\
| =========                 |                                                 |
| \\      /  F ield         | OpenFOAM: The Open Source CFD Toolbox           |
|  \\    /   O peration     | Version:  2406                                  |
|   \\  /    A nd           | Website:  www.openfoam.com                      |
|    \\/     M anipulation  |                                                 |
\*---------------------------------------------------------------------------*/
FoamFile
{
    version     2.0;
    format      ascii;
    arch        "LSB;label=32;scalar=64";
    class       volScalarField;
    location    "2.7";
    object      O2;
}
// * * * * * * * * * * * * * * * * * * * * * * * * * * * * * * * * * * * * * //

dimensions      [0 0 0 0 0 0 0];

internalField   nonuniform List<scalar> 
1000
(
1.67824e-06
1.67489e-06
1.66914e-06
1.66147e-06
1.65219e-06
1.64146e-06
1.62943e-06
1.61617e-06
1.60177e-06
1.58629e-06
1.56977e-06
1.55227e-06
1.53385e-06
1.51454e-06
1.49442e-06
1.47355e-06
1.45198e-06
1.42981e-06
1.40711e-06
1.38397e-06
1.36049e-06
1.33677e-06
1.31291e-06
1.28901e-06
1.26517e-06
1.2415e-06
1.2181e-06
1.19505e-06
1.17244e-06
1.15035e-06
1.12886e-06
1.10803e-06
1.08791e-06
1.06855e-06
1.04998e-06
1.03225e-06
1.01537e-06
9.99349e-07
9.84203e-07
9.69931e-07
9.56529e-07
9.43986e-07
9.3229e-07
9.21422e-07
9.11361e-07
9.02085e-07
8.93566e-07
8.85777e-07
8.78689e-07
8.72273e-07
8.66497e-07
8.61331e-07
8.56745e-07
8.52706e-07
8.49186e-07
8.46155e-07
8.43584e-07
8.41444e-07
8.39709e-07
8.38352e-07
8.37349e-07
8.36676e-07
8.36311e-07
8.36229e-07
8.36409e-07
8.36835e-07
8.37486e-07
8.38346e-07
8.39399e-07
8.40629e-07
8.42023e-07
8.43566e-07
8.45247e-07
8.47055e-07
8.48978e-07
8.51007e-07
8.53133e-07
8.55347e-07
8.57642e-07
8.60012e-07
8.62449e-07
8.64947e-07
8.67503e-07
8.7011e-07
8.72764e-07
8.75462e-07
8.782e-07
8.80975e-07
8.83784e-07
8.86625e-07
8.89495e-07
8.92392e-07
8.95316e-07
8.98263e-07
9.01233e-07
9.04217e-07
9.07198e-07
9.10237e-07
9.13295e-07
9.16371e-07
9.19464e-07
9.22575e-07
9.25702e-07
9.28845e-07
9.32005e-07
9.35181e-07
9.38374e-07
9.41584e-07
9.4481e-07
9.48053e-07
9.51312e-07
9.54589e-07
9.57883e-07
9.61193e-07
9.64522e-07
9.67868e-07
9.71232e-07
9.74615e-07
9.78015e-07
9.81435e-07
9.84874e-07
9.88332e-07
9.91809e-07
9.95307e-07
9.98825e-07
1.00236e-06
1.00592e-06
1.00951e-06
1.01311e-06
1.01673e-06
1.02038e-06
1.02405e-06
1.02775e-06
1.03147e-06
1.03521e-06
1.03898e-06
1.04277e-06
1.04659e-06
1.05043e-06
1.05431e-06
1.0582e-06
1.06213e-06
1.06608e-06
1.07005e-06
1.07402e-06
1.07806e-06
1.08214e-06
1.08624e-06
1.09038e-06
1.09454e-06
1.09874e-06
1.10296e-06
1.10722e-06
1.11151e-06
1.11583e-06
1.12018e-06
1.12457e-06
1.12899e-06
1.13344e-06
1.13793e-06
1.14245e-06
1.14701e-06
1.15161e-06
1.15618e-06
1.16083e-06
1.16552e-06
1.17026e-06
1.17504e-06
1.17986e-06
1.18471e-06
1.18961e-06
1.19454e-06
1.19952e-06
1.20453e-06
1.20959e-06
1.21469e-06
1.21983e-06
1.22502e-06
1.23025e-06
1.23552e-06
1.24084e-06
1.2462e-06
1.25161e-06
1.25706e-06
1.26257e-06
1.26812e-06
1.27372e-06
1.27937e-06
1.28507e-06
1.29082e-06
1.29663e-06
1.30248e-06
1.30839e-06
1.31435e-06
1.32037e-06
1.32644e-06
1.33257e-06
1.33875e-06
1.34499e-06
1.35129e-06
1.35765e-06
1.36407e-06
1.37055e-06
1.37709e-06
1.38369e-06
1.39035e-06
1.39708e-06
1.40388e-06
1.41074e-06
1.41766e-06
1.42466e-06
1.43172e-06
1.43885e-06
1.44605e-06
1.45333e-06
1.46067e-06
1.46809e-06
1.47558e-06
1.48315e-06
1.49079e-06
1.49852e-06
1.50632e-06
1.5142e-06
1.52216e-06
1.5302e-06
1.53832e-06
1.54653e-06
1.55483e-06
1.56321e-06
1.57168e-06
1.58024e-06
1.58888e-06
1.59762e-06
1.60646e-06
1.61539e-06
1.62441e-06
1.63353e-06
1.64276e-06
1.65208e-06
1.66151e-06
1.67104e-06
1.68068e-06
1.69042e-06
1.70028e-06
1.71025e-06
1.72033e-06
1.73054e-06
1.74086e-06
1.7513e-06
1.76187e-06
1.77257e-06
1.7834e-06
1.79435e-06
1.80545e-06
1.81668e-06
1.82805e-06
1.83957e-06
1.85123e-06
1.86304e-06
1.875e-06
1.88712e-06
1.89939e-06
1.91183e-06
1.92443e-06
1.93719e-06
1.95012e-06
1.96323e-06
1.97651e-06
1.98997e-06
2.00361e-06
2.01744e-06
2.03145e-06
2.04566e-06
2.06006e-06
2.07466e-06
2.08946e-06
2.10447e-06
2.11969e-06
2.13512e-06
2.15078e-06
2.16666e-06
2.18277e-06
2.19911e-06
2.21569e-06
2.23252e-06
2.2496e-06
2.26693e-06
2.28452e-06
2.30229e-06
2.32023e-06
2.33865e-06
2.35737e-06
2.37638e-06
2.3957e-06
2.41532e-06
2.43526e-06
2.45552e-06
2.47611e-06
2.49705e-06
2.51833e-06
2.53998e-06
2.562e-06
2.58439e-06
2.60718e-06
2.63036e-06
2.65396e-06
2.67799e-06
2.70245e-06
2.72736e-06
2.75273e-06
2.77858e-06
2.80491e-06
2.83175e-06
2.85911e-06
2.887e-06
2.91544e-06
2.94445e-06
2.97404e-06
3.00426e-06
3.03511e-06
3.06661e-06
3.09877e-06
3.13162e-06
3.16517e-06
3.19945e-06
3.23449e-06
3.2703e-06
3.30693e-06
3.34438e-06
3.3827e-06
3.4219e-06
3.46203e-06
3.50311e-06
3.54517e-06
3.58826e-06
3.63241e-06
3.67766e-06
3.72405e-06
3.77162e-06
3.82042e-06
3.87049e-06
3.92177e-06
3.97397e-06
4.02816e-06
4.08386e-06
4.14111e-06
4.19998e-06
4.26054e-06
4.32285e-06
4.38699e-06
4.45304e-06
4.52107e-06
4.59118e-06
4.66346e-06
4.73801e-06
4.81494e-06
4.89434e-06
4.97636e-06
5.06111e-06
5.14873e-06
5.23936e-06
5.33272e-06
5.42861e-06
5.52887e-06
5.63272e-06
5.74039e-06
5.8521e-06
5.96806e-06
6.08853e-06
6.21377e-06
6.34406e-06
6.47973e-06
6.62113e-06
6.76862e-06
6.92262e-06
7.0836e-06
7.25205e-06
7.42855e-06
7.61371e-06
7.80824e-06
8.01287e-06
8.2284e-06
8.45564e-06
8.69303e-06
8.94666e-06
9.2157e-06
9.50151e-06
9.80545e-06
1.01291e-05
1.04742e-05
1.08429e-05
1.12375e-05
1.16607e-05
1.21157e-05
1.26062e-05
1.31366e-05
1.37118e-05
1.43379e-05
1.50194e-05
1.57614e-05
1.65869e-05
1.74994e-05
1.85126e-05
1.96427e-05
2.09097e-05
2.23392e-05
2.3972e-05
2.5841e-05
2.79966e-05
3.05353e-05
3.35404e-05
3.71547e-05
4.15768e-05
4.70891e-05
5.41013e-05
6.32312e-05
7.54859e-05
9.26937e-05
0.000118532
0.000161069
0.000240128
0.000412972
0.000869908
0.00230365
0.00742415
0.02991
0.0666797
0.0851935
0.0943001
0.0987775
0.100983
0.102071
0.10261
0.102876
0.103008
0.103074
0.103107
0.103123
0.103131
0.103135
0.103137
0.103138
0.103139
0.103139
0.103139
0.103139
0.103139
0.103139
0.103139
0.103139
0.103139
0.103139
0.103139
0.103139
0.103139
0.103139
0.103139
0.103139
0.103139
0.103139
0.103139
0.103139
0.103139
0.103139
0.103139
0.103139
0.103139
0.103139
0.103139
0.103139
0.103139
0.103139
0.103139
0.103139
0.103139
0.103139
0.103139
0.103139
0.103139
0.103139
0.103139
0.103139
0.103139
0.103139
0.103139
0.103139
0.103139
0.103139
0.103139
0.103139
0.103139
0.103139
0.103139
0.103139
0.103139
0.103139
0.103139
0.103139
0.103139
0.103139
0.103139
0.103139
0.103139
0.103139
0.103139
0.103139
0.103139
0.103139
0.103139
0.103139
0.103139
0.103139
0.103139
0.103139
0.103139
0.103139
0.103139
0.103139
0.103139
0.103139
0.103139
0.103139
0.103139
0.103139
0.103139
0.103139
0.103139
0.103139
0.103139
0.103139
0.103139
0.103139
0.103139
0.103139
0.103139
0.103139
0.103139
0.103139
0.103139
0.103139
0.103139
0.103139
0.103139
0.103139
0.103139
0.103139
0.103139
0.103139
0.103139
0.103139
0.103139
0.103139
0.103139
0.103139
0.103139
0.103139
0.103139
0.103139
0.103139
0.103139
0.103139
0.103139
0.103139
0.103139
0.103139
0.103139
0.103139
0.103139
0.103139
0.103139
0.103139
0.103139
0.103139
0.103139
0.103139
0.103139
0.103139
0.103139
0.103139
0.103139
0.103139
0.103139
0.103139
0.103139
0.103139
0.103139
0.103139
0.103139
0.103139
0.103139
0.103139
0.103139
0.103139
0.103139
0.103139
0.103139
0.103139
0.103139
0.103139
0.103139
0.103139
0.103139
0.103139
0.103139
0.103139
0.103139
0.103139
0.103139
0.103139
0.103139
0.103139
0.103139
0.103139
0.103139
0.103139
0.103139
0.103139
0.103139
0.103139
0.103139
0.103139
0.103139
0.103139
0.103139
0.103139
0.103139
0.103139
0.103139
0.103139
0.103139
0.103139
0.103139
0.103139
0.103139
0.103139
0.103139
0.103139
0.103139
0.103139
0.103139
0.103139
0.103139
0.103139
0.103139
0.103139
0.103139
0.103139
0.103139
0.103139
0.103139
0.103139
0.103139
0.103139
0.103139
0.103139
0.103139
0.103139
0.103139
0.103139
0.103139
0.103139
0.103139
0.103139
0.103139
0.103139
0.103139
0.103139
0.103139
0.103139
0.103139
0.103139
0.103139
0.103139
0.103139
0.103139
0.103139
0.103139
0.103139
0.103139
0.103139
0.103139
0.103139
0.103139
0.103139
0.103139
0.103139
0.103139
0.103139
0.103139
0.103139
0.103139
0.103139
0.103139
0.103139
0.103139
0.103139
0.103139
0.103139
0.103139
0.103139
0.103139
0.103139
0.103139
0.103139
0.103139
0.103139
0.103139
0.103139
0.103139
0.103139
0.103139
0.103139
0.103139
0.103139
0.103139
0.103139
0.103139
0.103139
0.103139
0.103139
0.103139
0.103139
0.103139
0.103139
0.103139
0.103139
0.103139
0.103139
0.103139
0.103139
0.103139
0.103139
0.103139
0.103139
0.103139
0.103139
0.103139
0.103139
0.103139
0.103139
0.103139
0.103139
0.103139
0.103139
0.103139
0.103139
0.103139
0.103139
0.103139
0.103139
0.103139
0.103139
0.103139
0.103139
0.103139
0.103139
0.103139
0.103139
0.103139
0.103139
0.103139
0.103139
0.103139
0.103139
0.103139
0.103139
0.103139
0.103139
0.103139
0.103139
0.103139
0.103139
0.103139
0.103139
0.103139
0.103139
0.103139
0.103139
0.103139
0.103139
0.103139
0.103139
0.103139
0.103139
0.103139
0.103139
0.103139
0.103139
0.103139
0.103139
0.103139
0.103139
0.103139
0.103139
0.103139
0.103139
0.103139
0.103139
0.103139
0.103139
0.103139
0.103139
0.103139
0.103139
0.103139
0.103139
0.103139
0.103139
0.103139
0.103139
0.103139
0.103139
0.103139
0.103139
0.103139
0.103139
0.103139
0.103139
0.103139
0.103139
0.103139
0.103139
0.103139
0.103139
0.103139
0.103139
0.103139
0.103139
0.103139
0.103139
0.103139
0.103139
0.103139
0.103139
0.103139
0.103139
0.103139
0.103139
0.103139
0.103139
0.103139
0.103139
0.103139
0.103139
0.103139
0.103139
0.103139
0.103139
0.103139
0.103139
0.103139
0.103139
0.103139
0.103139
0.103139
0.103139
0.103139
0.103139
0.103139
0.103139
0.103139
0.103139
0.103139
0.103139
0.103139
0.103139
0.103139
0.103139
0.103139
0.103139
0.103139
0.103139
0.103139
0.103139
0.103139
0.103139
0.103139
0.103139
0.103139
0.103139
0.103139
0.103139
0.103139
0.103139
0.103139
0.103139
0.103139
0.103139
0.103139
0.103139
0.103139
0.103139
0.103139
0.103139
0.103139
0.103139
0.103139
0.103139
0.103139
0.103139
0.103139
0.103139
0.103139
0.103139
0.103139
0.103139
0.103139
0.103139
0.103139
0.103139
0.103139
0.103139
0.103139
0.103139
0.103139
0.103139
0.103139
0.103139
0.103139
0.103139
0.103139
0.103139
0.103139
0.103139
0.103139
0.103139
0.103139
0.103139
0.103139
0.103139
0.103139
0.103139
0.103139
0.103139
0.103139
0.103139
0.103139
0.103139
0.103139
0.103139
0.103139
0.103139
0.103139
0.103139
0.103139
0.103139
0.103139
0.103139
0.103139
0.103139
0.103139
0.103139
0.103139
0.103139
0.103139
0.103139
0.103139
0.103139
0.103139
0.103139
0.103139
0.103139
0.103139
0.103139
0.103139
0.103139
0.103139
0.103139
0.103139
0.103139
0.103139
0.103139
0.103139
0.103139
0.103139
0.103139
0.103139
0.103139
0.103139
0.103139
0.103139
0.103139
0.103139
0.103139
0.103139
0.103139
0.103139
0.103139
0.103139
0.103139
0.103139
0.103139
0.103139
0.103139
0.103139
0.103139
0.103139
0.103139
0.103139
0.103139
)
;

boundaryField
{
    fixedWall
    {
        type            zeroGradient;
    }
    outlet
    {
        type            inletOutlet;
        inletValue      uniform 0;
        value           uniform 0.103139;
    }
    defaultFaces
    {
        type            empty;
    }
}


// ************************************************************************* //
