/*--------------------------------*- C++ -*----------------------------------*\
| =========                 |                                                 |
| \\      /  F ield         | OpenFOAM: The Open Source CFD Toolbox           |
|  \\    /   O peration     | Version:  2406                                  |
|   \\  /    A nd           | Website:  www.openfoam.com                      |
|    \\/     M anipulation  |                                                 |
\*---------------------------------------------------------------------------*/
FoamFile
{
    version     2.0;
    format      ascii;
    arch        "LSB;label=32;scalar=64";
    class       surfaceScalarField;
    location    "2.7";
    object      phi;
}
// * * * * * * * * * * * * * * * * * * * * * * * * * * * * * * * * * * * * * //

dimensions      [1 0 -1 0 0 0 0];

oriented        oriented;

internalField   nonuniform List<scalar> 
999
(
-1.41168e-07
-4.09414e-07
-7.26927e-07
-1.06241e-06
-1.40163e-06
-1.73763e-06
-2.06693e-06
-2.38779e-06
-2.69938e-06
-3.0014e-06
-3.2938e-06
-3.57671e-06
-3.85032e-06
-4.11487e-06
-4.37062e-06
-4.61783e-06
-4.85675e-06
-5.08764e-06
-5.31074e-06
-5.52626e-06
-5.73442e-06
-5.93543e-06
-6.12947e-06
-6.31672e-06
-6.49737e-06
-6.67158e-06
-6.83951e-06
-7.00131e-06
-7.15712e-06
-7.3071e-06
-7.45138e-06
-7.59009e-06
-7.72337e-06
-7.85136e-06
-7.97417e-06
-8.09193e-06
-8.20477e-06
-8.31281e-06
-8.41618e-06
-8.51499e-06
-8.60937e-06
-8.69944e-06
-8.78531e-06
-8.86712e-06
-8.94497e-06
-9.01899e-06
-9.0893e-06
-9.15601e-06
-9.21924e-06
-9.27911e-06
-9.33574e-06
-9.38924e-06
-9.43972e-06
-9.48731e-06
-9.53211e-06
-9.57423e-06
-9.61378e-06
-9.65087e-06
-9.68561e-06
-9.71811e-06
-9.74849e-06
-9.77673e-06
-9.80277e-06
-9.82734e-06
-9.85013e-06
-9.87129e-06
-9.89091e-06
-9.90904e-06
-9.92576e-06
-9.94116e-06
-9.95531e-06
-9.9683e-06
-9.9802e-06
-9.99107e-06
-1.0001e-05
-1.001e-05
-1.00182e-05
-1.00256e-05
-1.00323e-05
-1.00383e-05
-1.00437e-05
-1.00486e-05
-1.00529e-05
-1.00567e-05
-1.00601e-05
-1.0063e-05
-1.00656e-05
-1.00679e-05
-1.00698e-05
-1.00714e-05
-1.00728e-05
-1.00739e-05
-1.00749e-05
-1.00756e-05
-1.00761e-05
-1.00765e-05
-1.00768e-05
-1.00769e-05
-1.00769e-05
-1.00768e-05
-1.00766e-05
-1.00763e-05
-1.0076e-05
-1.00755e-05
-1.00751e-05
-1.00745e-05
-1.0074e-05
-1.00733e-05
-1.00727e-05
-1.0072e-05
-1.00713e-05
-1.00706e-05
-1.00699e-05
-1.00691e-05
-1.00683e-05
-1.00675e-05
-1.00667e-05
-1.00659e-05
-1.00651e-05
-1.00643e-05
-1.00635e-05
-1.00626e-05
-1.00618e-05
-1.0061e-05
-1.00602e-05
-1.00593e-05
-1.00585e-05
-1.00577e-05
-1.00568e-05
-1.0056e-05
-1.00552e-05
-1.00544e-05
-1.00536e-05
-1.00527e-05
-1.00519e-05
-1.00511e-05
-1.00503e-05
-1.00495e-05
-1.00487e-05
-1.00479e-05
-1.00471e-05
-1.00463e-05
-1.00455e-05
-1.00447e-05
-1.0044e-05
-1.00432e-05
-1.00424e-05
-1.00416e-05
-1.00409e-05
-1.00401e-05
-1.00393e-05
-1.00385e-05
-1.00378e-05
-1.0037e-05
-1.00362e-05
-1.00355e-05
-1.00347e-05
-1.00339e-05
-1.00332e-05
-1.00324e-05
-1.00316e-05
-1.00309e-05
-1.00301e-05
-1.00293e-05
-1.00286e-05
-1.00278e-05
-1.0027e-05
-1.00263e-05
-1.00255e-05
-1.00247e-05
-1.0024e-05
-1.00232e-05
-1.00224e-05
-1.00216e-05
-1.00209e-05
-1.00201e-05
-1.00193e-05
-1.00185e-05
-1.00177e-05
-1.0017e-05
-1.00162e-05
-1.00154e-05
-1.00146e-05
-1.00138e-05
-1.0013e-05
-1.00122e-05
-1.00114e-05
-1.00107e-05
-1.00099e-05
-1.00091e-05
-1.00083e-05
-1.00075e-05
-1.00067e-05
-1.00059e-05
-1.00051e-05
-1.00043e-05
-1.00035e-05
-1.00027e-05
-1.00018e-05
-1.0001e-05
-1.00002e-05
-9.9994e-06
-9.99858e-06
-9.99776e-06
-9.99693e-06
-9.9961e-06
-9.99527e-06
-9.99444e-06
-9.9936e-06
-9.99276e-06
-9.99192e-06
-9.99107e-06
-9.99022e-06
-9.98936e-06
-9.98851e-06
-9.98765e-06
-9.98678e-06
-9.98591e-06
-9.98504e-06
-9.98417e-06
-9.98329e-06
-9.9824e-06
-9.98151e-06
-9.98062e-06
-9.97972e-06
-9.97882e-06
-9.97792e-06
-9.97701e-06
-9.9761e-06
-9.97518e-06
-9.97426e-06
-9.97334e-06
-9.97242e-06
-9.97149e-06
-9.97055e-06
-9.96962e-06
-9.96868e-06
-9.96774e-06
-9.9668e-06
-9.96586e-06
-9.96492e-06
-9.96397e-06
-9.96302e-06
-9.96208e-06
-9.96113e-06
-9.96018e-06
-9.95923e-06
-9.95828e-06
-9.95733e-06
-9.95638e-06
-9.95542e-06
-9.95447e-06
-9.95351e-06
-9.95256e-06
-9.9516e-06
-9.95064e-06
-9.94968e-06
-9.94871e-06
-9.94774e-06
-9.94676e-06
-9.94579e-06
-9.9448e-06
-9.94381e-06
-9.94282e-06
-9.94182e-06
-9.94081e-06
-9.93979e-06
-9.93877e-06
-9.93774e-06
-9.93671e-06
-9.93566e-06
-9.93461e-06
-9.93355e-06
-9.93248e-06
-9.93141e-06
-9.93033e-06
-9.92924e-06
-9.92815e-06
-9.92705e-06
-9.92594e-06
-9.92483e-06
-9.92372e-06
-9.9226e-06
-9.92148e-06
-9.92035e-06
-9.91923e-06
-9.9181e-06
-9.91697e-06
-9.91583e-06
-9.9147e-06
-9.91356e-06
-9.91243e-06
-9.91129e-06
-9.91016e-06
-9.90902e-06
-9.90788e-06
-9.90674e-06
-9.90561e-06
-9.90447e-06
-9.90333e-06
-9.90219e-06
-9.90106e-06
-9.89992e-06
-9.89878e-06
-9.89764e-06
-9.8965e-06
-9.89536e-06
-9.89422e-06
-9.89308e-06
-9.89193e-06
-9.89078e-06
-9.88963e-06
-9.88848e-06
-9.88731e-06
-9.88615e-06
-9.88497e-06
-9.88379e-06
-9.8826e-06
-9.8814e-06
-9.88019e-06
-9.87897e-06
-9.87774e-06
-9.87651e-06
-9.87526e-06
-9.874e-06
-9.87273e-06
-9.87146e-06
-9.87018e-06
-9.86889e-06
-9.8676e-06
-9.86631e-06
-9.86502e-06
-9.86372e-06
-9.86244e-06
-9.86115e-06
-9.85987e-06
-9.8586e-06
-9.85733e-06
-9.85606e-06
-9.85481e-06
-9.85355e-06
-9.8523e-06
-9.85105e-06
-9.8498e-06
-9.84854e-06
-9.84728e-06
-9.84601e-06
-9.84472e-06
-9.84343e-06
-9.84211e-06
-9.84078e-06
-9.83943e-06
-9.83805e-06
-9.83665e-06
-9.83523e-06
-9.83378e-06
-9.8323e-06
-9.83079e-06
-9.82925e-06
-9.82768e-06
-9.82607e-06
-9.82443e-06
-9.82276e-06
-9.82106e-06
-9.81932e-06
-9.81756e-06
-9.81576e-06
-9.81394e-06
-9.81209e-06
-9.81023e-06
-9.80836e-06
-9.80649e-06
-9.80462e-06
-9.80276e-06
-9.80092e-06
-9.79911e-06
-9.79735e-06
-9.79563e-06
-9.79396e-06
-9.79236e-06
-9.79083e-06
-9.78937e-06
-9.78797e-06
-9.78662e-06
-9.78531e-06
-9.78402e-06
-9.7827e-06
-9.78133e-06
-9.77984e-06
-9.77818e-06
-9.7763e-06
-9.77413e-06
-9.77165e-06
-9.76882e-06
-9.76562e-06
-9.76208e-06
-9.75822e-06
-9.75411e-06
-9.74981e-06
-9.74539e-06
-9.74089e-06
-9.73634e-06
-9.7317e-06
-9.72689e-06
-9.72179e-06
-9.71626e-06
-9.71012e-06
-9.70326e-06
-9.69559e-06
-9.6871e-06
-9.67787e-06
-9.668e-06
-9.65745e-06
-9.64568e-06
-9.63078e-06
-9.60832e-06
-9.57015e-06
-9.50451e-06
-9.39885e-06
-9.24569e-06
-9.05051e-06
-8.83942e-06
-8.60316e-06
-7.88186e-06
-2.04111e-06
0.000161384
0.000352398
0.00053913
0.000691187
0.000796909
0.000862645
0.000900778
0.00092204
0.000933641
0.000939899
0.000943257
0.000945053
0.000946013
0.000946527
0.000946802
0.00094695
0.000947031
0.000947075
0.0009471
0.000947114
0.000947124
0.00094713
0.000947134
0.000947138
0.000947141
0.000947144
0.000947147
0.00094715
0.000947152
0.000947155
0.000947158
0.00094716
0.000947163
0.000947165
0.000947168
0.00094717
0.000947173
0.000947175
0.000947177
0.00094718
0.000947182
0.000947185
0.000947187
0.000947189
0.000947192
0.000947194
0.000947196
0.000947198
0.000947201
0.000947203
0.000947205
0.000947207
0.000947209
0.000947211
0.000947214
0.000947216
0.000947218
0.00094722
0.000947222
0.000947224
0.000947226
0.000947228
0.00094723
0.000947232
0.000947233
0.000947235
0.000947237
0.000947239
0.000947241
0.000947243
0.000947245
0.000947246
0.000947248
0.00094725
0.000947252
0.000947253
0.000947255
0.000947257
0.000947258
0.00094726
0.000947262
0.000947263
0.000947265
0.000947267
0.000947268
0.00094727
0.000947271
0.000947273
0.000947274
0.000947276
0.000947277
0.000947279
0.00094728
0.000947282
0.000947283
0.000947284
0.000947286
0.000947287
0.000947289
0.00094729
0.000947291
0.000947292
0.000947294
0.000947295
0.000947296
0.000947298
0.000947299
0.0009473
0.000947301
0.000947302
0.000947304
0.000947305
0.000947306
0.000947307
0.000947308
0.000947309
0.00094731
0.000947311
0.000947313
0.000947314
0.000947315
0.000947316
0.000947317
0.000947318
0.000947319
0.00094732
0.000947321
0.000947322
0.000947323
0.000947323
0.000947324
0.000947325
0.000947326
0.000947327
0.000947328
0.000947329
0.00094733
0.00094733
0.000947331
0.000947332
0.000947333
0.000947334
0.000947334
0.000947335
0.000947336
0.000947337
0.000947337
0.000947338
0.000947339
0.000947339
0.00094734
0.000947341
0.000947341
0.000947342
0.000947343
0.000947343
0.000947344
0.000947345
0.000947345
0.000947346
0.000947346
0.000947347
0.000947347
0.000947348
0.000947348
0.000947349
0.000947349
0.00094735
0.00094735
0.000947351
0.000947351
0.000947352
0.000947352
0.000947353
0.000947353
0.000947353
0.000947354
0.000947354
0.000947355
0.000947355
0.000947356
0.000947356
0.000947356
0.000947357
0.000947357
0.000947357
0.000947358
0.000947358
0.000947358
0.000947358
0.000947359
0.000947359
0.000947359
0.00094736
0.00094736
0.00094736
0.00094736
0.00094736
0.000947361
0.000947361
0.000947361
0.000947361
0.000947361
0.000947362
0.000947362
0.000947362
0.000947362
0.000947362
0.000947362
0.000947363
0.000947363
0.000947363
0.000947363
0.000947363
0.000947363
0.000947363
0.000947363
0.000947363
0.000947363
0.000947363
0.000947363
0.000947363
0.000947364
0.000947364
0.000947364
0.000947364
0.000947364
0.000947364
0.000947364
0.000947364
0.000947364
0.000947364
0.000947364
0.000947364
0.000947363
0.000947363
0.000947363
0.000947363
0.000947363
0.000947363
0.000947363
0.000947363
0.000947363
0.000947363
0.000947363
0.000947363
0.000947363
0.000947363
0.000947362
0.000947362
0.000947362
0.000947362
0.000947362
0.000947362
0.000947362
0.000947361
0.000947361
0.000947361
0.000947361
0.000947361
0.000947361
0.00094736
0.00094736
0.00094736
0.00094736
0.00094736
0.000947359
0.000947359
0.000947359
0.000947359
0.000947359
0.000947358
0.000947358
0.000947358
0.000947358
0.000947357
0.000947357
0.000947357
0.000947357
0.000947356
0.000947356
0.000947356
0.000947356
0.000947355
0.000947355
0.000947355
0.000947355
0.000947354
0.000947354
0.000947354
0.000947353
0.000947353
0.000947353
0.000947352
0.000947352
0.000947352
0.000947352
0.000947351
0.000947351
0.000947351
0.00094735
0.00094735
0.00094735
0.000947349
0.000947349
0.000947349
0.000947348
0.000947348
0.000947348
0.000947347
0.000947347
0.000947347
0.000947346
0.000947346
0.000947345
0.000947345
0.000947345
0.000947344
0.000947344
0.000947344
0.000947343
0.000947343
0.000947342
0.000947342
0.000947342
0.000947341
0.000947341
0.000947341
0.00094734
0.00094734
0.000947339
0.000947339
0.000947339
0.000947338
0.000947338
0.000947337
0.000947337
0.000947337
0.000947336
0.000947336
0.000947335
0.000947335
0.000947334
0.000947334
0.000947334
0.000947333
0.000947333
0.000947332
0.000947332
0.000947332
0.000947331
0.000947331
0.00094733
0.00094733
0.000947329
0.000947329
0.000947329
0.000947328
0.000947328
0.000947327
0.000947327
0.000947326
0.000947326
0.000947326
0.000947325
0.000947325
0.000947324
0.000947324
0.000947323
0.000947323
0.000947323
0.000947322
0.000947322
0.000947321
0.000947321
0.00094732
0.00094732
0.000947319
0.000947319
0.000947319
0.000947318
0.000947318
0.000947317
0.000947317
0.000947316
0.000947316
0.000947316
0.000947315
0.000947315
0.000947314
0.000947314
0.000947313
0.000947313
0.000947312
0.000947312
0.000947312
0.000947311
0.000947311
0.00094731
0.00094731
0.000947309
0.000947309
0.000947309
0.000947308
0.000947308
0.000947307
0.000947307
0.000947306
0.000947306
0.000947306
0.000947305
0.000947305
0.000947304
0.000947304
0.000947303
0.000947303
0.000947302
0.000947302
0.000947302
0.000947301
0.000947301
0.0009473
0.0009473
0.000947299
0.000947299
0.000947299
0.000947298
0.000947298
0.000947297
0.000947297
0.000947297
0.000947296
0.000947296
0.000947295
0.000947295
0.000947295
0.000947294
0.000947294
0.000947293
0.000947293
0.000947293
0.000947292
0.000947292
0.000947291
0.000947291
0.000947291
0.00094729
0.00094729
0.000947289
0.000947289
0.000947289
0.000947288
0.000947288
0.000947287
0.000947287
0.000947287
0.000947286
0.000947286
0.000947286
0.000947285
0.000947285
0.000947284
0.000947284
0.000947284
0.000947283
0.000947283
0.000947283
0.000947282
0.000947282
0.000947282
0.000947281
0.000947281
0.00094728
0.00094728
0.00094728
0.000947279
0.000947279
0.000947279
0.000947278
0.000947278
0.000947278
0.000947277
0.000947277
0.000947277
0.000947276
0.000947276
0.000947276
0.000947275
0.000947275
0.000947275
0.000947274
0.000947274
0.000947274
0.000947273
0.000947273
0.000947273
0.000947273
0.000947272
0.000947272
0.000947272
0.000947271
0.000947271
0.000947271
0.00094727
0.00094727
0.00094727
0.00094727
0.000947269
0.000947269
0.000947269
0.000947269
0.000947268
0.000947268
0.000947268
0.000947267
0.000947267
0.000947267
0.000947267
0.000947266
0.000947266
0.000947266
0.000947266
0.000947265
0.000947265
0.000947265
0.000947265
0.000947264
0.000947264
0.000947264
0.000947264
0.000947264
0.000947263
0.000947263
0.000947263
0.000947263
0.000947262
0.000947262
0.000947262
0.000947262
0.000947262
0.000947261
0.000947261
0.000947261
0.000947261
0.000947261
0.00094726
0.00094726
0.00094726
0.00094726
0.00094726
0.000947259
0.000947259
0.000947259
0.000947259
0.000947259
0.000947259
0.000947258
0.000947258
0.000947258
0.000947258
0.000947258
0.000947258
0.000947257
0.000947257
0.000947257
0.000947257
0.000947257
0.000947257
0.000947257
0.000947256
0.000947256
0.000947256
0.000947256
0.000947256
)
;

boundaryField
{
    fixedWall
    {
        type            calculated;
        value           uniform 0;
    }
    outlet
    {
        type            calculated;
        value           uniform 0.000947256;
    }
    defaultFaces
    {
        type            empty;
    }
}


// ************************************************************************* //
