/*--------------------------------*- C++ -*----------------------------------*\
| =========                 |                                                 |
| \\      /  F ield         | OpenFOAM: The Open Source CFD Toolbox           |
|  \\    /   O peration     | Version:  2406                                  |
|   \\  /    A nd           | Website:  www.openfoam.com                      |
|    \\/     M anipulation  |                                                 |
\*---------------------------------------------------------------------------*/
FoamFile
{
    version     2.0;
    format      ascii;
    arch        "LSB;label=32;scalar=64";
    class       volScalarField;
    location    "2.7";
    object      T;
}
// * * * * * * * * * * * * * * * * * * * * * * * * * * * * * * * * * * * * * //

dimensions      [0 0 0 1 0 0 0];

internalField   nonuniform List<scalar> 
1000
(
319.36
364.309
403.46
438.267
469.649
498.234
524.472
548.7
571.178
592.112
611.667
629.98
647.165
663.317
678.52
692.844
706.352
719.099
731.134
742.501
753.239
763.387
772.975
782.035
790.594
798.68
806.316
813.525
820.328
826.747
832.8
838.504
843.878
848.937
853.697
858.174
862.38
866.329
870.035
873.51
876.766
879.814
882.664
885.328
887.815
890.135
892.298
894.311
896.183
897.923
899.537
901.034
902.421
903.703
904.888
905.982
906.989
907.917
908.77
909.554
910.272
910.929
911.527
912.072
912.573
913.028
913.442
913.818
914.158
914.465
914.742
914.991
915.215
915.415
915.595
915.754
915.896
916.022
916.134
916.231
916.317
916.392
916.458
916.514
916.563
916.604
916.64
916.669
916.694
916.714
916.73
916.743
916.753
916.76
916.765
916.768
916.769
916.769
916.767
916.765
916.762
916.758
916.753
916.748
916.743
916.737
916.732
916.726
916.72
916.714
916.709
916.703
916.698
916.692
916.687
916.682
916.678
916.673
916.669
916.665
916.661
916.658
916.655
916.651
916.649
916.646
916.644
916.641
916.639
916.638
916.636
916.635
916.633
916.632
916.631
916.63
916.63
916.629
916.628
916.628
916.628
916.627
916.627
916.627
916.627
916.627
916.627
916.627
916.627
916.628
916.628
916.628
916.628
916.628
916.628
916.629
916.629
916.629
916.629
916.629
916.629
916.629
916.629
916.629
916.629
916.629
916.629
916.629
916.629
916.629
916.629
916.629
916.628
916.628
916.628
916.627
916.627
916.626
916.626
916.625
916.625
916.624
916.624
916.623
916.622
916.621
916.621
916.62
916.619
916.618
916.617
916.616
916.615
916.614
916.612
916.611
916.61
916.609
916.607
916.606
916.605
916.603
916.602
916.6
916.599
916.597
916.595
916.594
916.592
916.59
916.588
916.587
916.585
916.583
916.581
916.579
916.578
916.576
916.574
916.572
916.57
916.568
916.566
916.565
916.563
916.561
916.559
916.557
916.555
916.554
916.552
916.55
916.549
916.547
916.545
916.544
916.542
916.54
916.539
916.537
916.536
916.534
916.533
916.531
916.53
916.528
916.527
916.526
916.524
916.523
916.521
916.52
916.518
916.517
916.515
916.514
916.512
916.511
916.509
916.508
916.506
916.504
916.503
916.501
916.5
916.498
916.496
916.495
916.493
916.492
916.49
916.489
916.488
916.486
916.485
916.484
916.483
916.482
916.481
916.48
916.479
916.479
916.478
916.477
916.477
916.477
916.476
916.476
916.476
916.476
916.476
916.476
916.476
916.477
916.477
916.477
916.477
916.478
916.478
916.479
916.479
916.479
916.48
916.48
916.481
916.481
916.481
916.482
916.482
916.482
916.482
916.483
916.483
916.483
916.483
916.483
916.483
916.483
916.483
916.483
916.483
916.483
916.484
916.484
916.484
916.484
916.484
916.484
916.485
916.485
916.486
916.486
916.487
916.487
916.488
916.488
916.489
916.489
916.49
916.49
916.49
916.49
916.491
916.491
916.49
916.49
916.49
916.489
916.488
916.488
916.487
916.486
916.485
916.484
916.483
916.482
916.481
916.48
916.479
916.479
916.478
916.478
916.478
916.478
916.479
916.479
916.48
916.482
916.484
916.486
916.488
916.491
916.494
916.498
916.501
916.505
916.509
916.513
916.516
916.52
916.522
916.525
916.526
916.527
916.527
916.526
916.523
916.52
916.515
916.509
916.502
916.495
916.488
916.48
916.473
916.467
916.462
916.458
916.456
916.455
916.456
916.458
916.461
916.464
916.467
916.469
916.472
916.473
916.475
916.475
916.473
916.468
916.458
916.437
916.403
916.349
916.273
916.175
916.056
915.903
915.633
914.94
912.867
906.303
883.834
789.335
599.652
472.17
393.46
347.891
322.579
308.829
301.44
297.489
295.382
294.258
293.66
293.341
293.171
293.08
293.032
293.006
292.992
292.985
292.981
292.979
292.978
292.977
292.977
292.977
292.977
292.977
292.977
292.977
292.977
292.977
292.977
292.977
292.977
292.977
292.977
292.977
292.977
292.977
292.977
292.977
292.977
292.977
292.977
292.977
292.977
292.977
292.977
292.977
292.977
292.978
292.978
292.978
292.978
292.978
292.978
292.978
292.978
292.978
292.978
292.978
292.978
292.978
292.978
292.978
292.978
292.978
292.978
292.978
292.978
292.978
292.978
292.978
292.978
292.978
292.978
292.978
292.978
292.978
292.978
292.978
292.979
292.979
292.979
292.979
292.979
292.979
292.979
292.979
292.979
292.979
292.979
292.979
292.979
292.979
292.979
292.979
292.979
292.979
292.979
292.979
292.979
292.979
292.979
292.979
292.979
292.979
292.979
292.979
292.979
292.979
292.98
292.98
292.98
292.98
292.98
292.98
292.98
292.98
292.98
292.98
292.98
292.98
292.98
292.98
292.98
292.98
292.98
292.98
292.98
292.98
292.98
292.98
292.98
292.98
292.98
292.98
292.98
292.98
292.98
292.98
292.98
292.981
292.981
292.981
292.981
292.981
292.981
292.981
292.981
292.981
292.981
292.981
292.981
292.981
292.981
292.981
292.981
292.981
292.981
292.981
292.981
292.981
292.981
292.981
292.981
292.981
292.981
292.981
292.981
292.981
292.981
292.982
292.982
292.982
292.982
292.982
292.982
292.982
292.982
292.982
292.982
292.982
292.982
292.982
292.982
292.982
292.982
292.982
292.982
292.982
292.982
292.982
292.982
292.982
292.982
292.982
292.982
292.982
292.982
292.982
292.982
292.982
292.983
292.983
292.983
292.983
292.983
292.983
292.983
292.983
292.983
292.983
292.983
292.983
292.983
292.983
292.983
292.983
292.983
292.983
292.983
292.983
292.983
292.983
292.983
292.983
292.983
292.983
292.983
292.983
292.983
292.984
292.984
292.984
292.984
292.984
292.984
292.984
292.984
292.984
292.984
292.984
292.984
292.984
292.984
292.984
292.984
292.984
292.984
292.984
292.984
292.984
292.984
292.984
292.984
292.984
292.984
292.984
292.984
292.984
292.984
292.985
292.985
292.985
292.985
292.985
292.985
292.985
292.985
292.985
292.985
292.985
292.985
292.985
292.985
292.985
292.985
292.985
292.985
292.985
292.985
292.985
292.985
292.985
292.985
292.985
292.985
292.985
292.985
292.985
292.985
292.986
292.986
292.986
292.986
292.986
292.986
292.986
292.986
292.986
292.986
292.986
292.986
292.986
292.986
292.986
292.986
292.986
292.986
292.986
292.986
292.986
292.986
292.986
292.986
292.986
292.986
292.986
292.986
292.986
292.986
292.987
292.987
292.987
292.987
292.987
292.987
292.987
292.987
292.987
292.987
292.987
292.987
292.987
292.987
292.987
292.987
292.987
292.987
292.987
292.987
292.987
292.987
292.987
292.987
292.987
292.987
292.987
292.987
292.987
292.988
292.988
292.988
292.988
292.988
292.988
292.988
292.988
292.988
292.988
292.988
292.988
292.988
292.988
292.988
292.988
292.988
292.988
292.988
292.988
292.988
292.988
292.988
292.988
292.988
292.988
292.988
292.988
292.988
292.989
292.989
292.989
292.989
292.989
292.989
292.989
292.989
292.989
292.989
292.989
292.989
292.989
292.989
292.989
292.989
292.989
292.989
292.989
292.989
292.989
292.989
292.989
292.989
292.989
292.989
292.989
292.989
292.989
292.989
292.99
292.99
292.99
292.99
292.99
292.99
292.99
292.99
292.99
292.99
292.99
292.99
292.99
292.99
292.99
292.99
292.99
292.99
292.99
292.99
292.99
292.99
292.99
292.99
292.99
292.99
292.99
292.99
292.99
292.991
292.991
292.991
292.991
292.991
292.991
292.991
292.991
292.991
292.991
292.991
292.991
292.991
292.991
292.991
292.991
292.991
292.991
292.991
292.991
292.991
292.991
292.991
292.991
292.991
292.991
292.991
292.991
292.991
292.991
292.992
292.992
292.992
292.992
292.992
292.992
292.992
292.992
292.992
292.992
292.992
292.992
292.992
292.992
292.992
292.992
292.992
292.992
292.992
292.992
292.992
292.992
292.992
292.992
292.992
292.992
292.992
292.992
292.993
292.993
292.993
292.993
292.993
292.993
292.993
292.993
292.993
292.993
292.993
292.993
292.993
292.993
292.993
292.993
292.993
292.993
292.993
292.993
292.993
292.993
292.993
292.993
292.993
292.993
292.993
292.993
292.993
292.993
292.994
292.994
292.994
292.994
292.994
292.994
292.994
292.994
292.994
292.994
292.994
292.994
292.994
292.994
292.994
292.994
292.994
292.994
292.994
292.994
292.994
292.994
292.994
292.994
292.994
292.994
292.994
292.994
292.995
292.995
292.995
292.995
292.995
292.995
292.995
292.995
292.995
292.995
292.995
292.995
292.995
292.995
292.995
292.995
292.995
292.995
292.995
292.995
)
;

boundaryField
{
    fixedWall
    {
        type            fixedValue;
        value           uniform 293;
    }
    outlet
    {
        type            inletOutlet;
        inletValue      uniform 293;
        value           uniform 292.995;
    }
    defaultFaces
    {
        type            empty;
    }
}


// ************************************************************************* //
