/*--------------------------------*- C++ -*----------------------------------*\
| =========                 |                                                 |
| \\      /  F ield         | OpenFOAM: The Open Source CFD Toolbox           |
|  \\    /   O peration     | Version:  2406                                  |
|   \\  /    A nd           | Website:  www.openfoam.com                      |
|    \\/     M anipulation  |                                                 |
\*---------------------------------------------------------------------------*/
FoamFile
{
    version     2.0;
    format      ascii;
    arch        "LSB;label=32;scalar=64";
    class       volScalarField;
    location    "14.9";
    object      CO2;
}
// * * * * * * * * * * * * * * * * * * * * * * * * * * * * * * * * * * * * * //

dimensions      [0 0 0 0 0 0 0];

internalField   nonuniform List<scalar> 
1000
(
0.0709262
0.0709262
0.0709262
0.0709262
0.0709262
0.0709262
0.0709262
0.0709262
0.0709262
0.0709262
0.0709262
0.0709262
0.0709262
0.0709262
0.0709262
0.0709262
0.0709262
0.0709262
0.0709263
0.0709263
0.0709263
0.0709263
0.0709263
0.0709263
0.0709263
0.0709263
0.0709263
0.0709263
0.0709263
0.0709263
0.0709263
0.0709263
0.0709264
0.0709264
0.0709264
0.0709264
0.0709264
0.0709264
0.0709264
0.0709264
0.0709264
0.0709264
0.0709264
0.0709264
0.0709264
0.0709265
0.0709265
0.0709265
0.0709265
0.0709265
0.0709265
0.0709265
0.0709265
0.0709265
0.0709265
0.0709265
0.0709265
0.0709265
0.0709265
0.0709265
0.0709265
0.0709266
0.0709266
0.0709266
0.0709266
0.0709266
0.0709266
0.0709266
0.0709266
0.0709266
0.0709266
0.0709266
0.0709266
0.0709266
0.0709266
0.0709266
0.0709266
0.0709266
0.0709266
0.0709266
0.0709266
0.0709266
0.0709267
0.0709267
0.0709267
0.0709267
0.0709267
0.0709267
0.0709267
0.0709267
0.0709267
0.0709267
0.0709267
0.0709267
0.0709267
0.0709267
0.0709267
0.0709267
0.0709267
0.0709267
0.0709267
0.0709267
0.0709267
0.0709267
0.0709267
0.0709267
0.0709267
0.0709267
0.0709267
0.0709267
0.0709267
0.0709267
0.0709267
0.0709267
0.0709267
0.0709267
0.0709267
0.0709267
0.0709267
0.0709267
0.0709267
0.0709267
0.0709267
0.0709267
0.0709267
0.0709267
0.0709267
0.0709267
0.0709267
0.0709267
0.0709267
0.0709267
0.0709267
0.0709267
0.0709267
0.0709267
0.0709267
0.0709267
0.0709267
0.0709267
0.0709267
0.0709267
0.0709267
0.0709267
0.0709267
0.0709267
0.0709267
0.0709267
0.0709268
0.0709268
0.0709268
0.0709268
0.0709268
0.0709268
0.0709268
0.0709268
0.0709268
0.0709268
0.0709268
0.0709268
0.0709268
0.0709268
0.0709268
0.0709268
0.0709268
0.0709268
0.0709268
0.0709268
0.0709268
0.0709268
0.0709268
0.0709268
0.0709268
0.0709268
0.0709268
0.0709268
0.0709268
0.0709268
0.0709268
0.0709268
0.0709268
0.0709268
0.0709268
0.0709268
0.0709268
0.0709268
0.0709268
0.0709268
0.0709268
0.0709268
0.0709268
0.0709268
0.0709268
0.0709268
0.0709268
0.0709268
0.0709268
0.0709268
0.0709268
0.0709268
0.0709268
0.0709268
0.0709268
0.0709268
0.0709268
0.0709268
0.0709268
0.0709268
0.0709268
0.0709268
0.0709268
0.0709268
0.0709268
0.0709268
0.0709268
0.0709268
0.0709268
0.0709268
0.0709268
0.0709268
0.0709268
0.0709268
0.0709268
0.0709268
0.0709268
0.0709268
0.0709268
0.0709268
0.0709268
0.0709268
0.0709268
0.0709268
0.0709268
0.0709268
0.0709268
0.0709268
0.0709268
0.0709268
0.0709268
0.0709268
0.0709268
0.0709268
0.0709268
0.0709268
0.0709268
0.0709268
0.0709268
0.0709268
0.0709268
0.0709268
0.0709268
0.0709268
0.0709268
0.0709268
0.0709268
0.0709268
0.0709268
0.0709268
0.0709268
0.0709268
0.0709268
0.0709268
0.0709268
0.0709268
0.0709268
0.0709268
0.0709268
0.0709268
0.0709268
0.0709268
0.0709268
0.0709268
0.0709268
0.0709268
0.0709268
0.0709268
0.0709268
0.0709268
0.0709268
0.0709268
0.0709268
0.0709268
0.0709268
0.0709268
0.0709268
0.0709268
0.0709268
0.0709268
0.0709268
0.0709268
0.0709268
0.0709268
0.0709268
0.0709268
0.0709268
0.0709268
0.0709268
0.0709268
0.0709268
0.0709268
0.0709268
0.0709268
0.0709268
0.0709268
0.0709268
0.0709268
0.0709268
0.0709268
0.0709268
0.0709268
0.0709268
0.0709268
0.0709268
0.0709268
0.0709268
0.0709268
0.0709268
0.0709268
0.0709268
0.0709268
0.0709268
0.0709268
0.0709268
0.0709268
0.0709268
0.0709268
0.0709268
0.0709268
0.0709268
0.0709268
0.0709268
0.0709268
0.0709268
0.0709268
0.0709268
0.0709268
0.0709268
0.0709268
0.0709268
0.0709268
0.0709268
0.0709268
0.0709268
0.0709268
0.0709268
0.0709268
0.0709268
0.0709268
0.0709268
0.0709268
0.0709268
0.0709268
0.0709267
0.0709267
0.0709267
0.0709267
0.0709267
0.0709267
0.0709267
0.0709267
0.0709267
0.0709267
0.0709267
0.0709267
0.0709267
0.0709267
0.0709267
0.0709267
0.0709267
0.0709267
0.0709267
0.0709267
0.0709267
0.0709267
0.0709267
0.0709267
0.0709267
0.0709267
0.0709267
0.0709267
0.0709267
0.0709267
0.0709267
0.0709267
0.0709267
0.0709267
0.0709267
0.0709267
0.0709267
0.0709267
0.0709267
0.0709267
0.0709267
0.0709267
0.0709267
0.0709267
0.0709267
0.0709267
0.0709267
0.0709267
0.0709267
0.0709267
0.0709267
0.0709267
0.0709267
0.0709267
0.0709267
0.0709267
0.0709267
0.0709267
0.0709267
0.0709267
0.0709267
0.0709267
0.0709267
0.0709267
0.0709267
0.0709267
0.0709267
0.0709267
0.0709267
0.0709267
0.0709267
0.0709267
0.0709267
0.0709267
0.0709267
0.0709267
0.0709267
0.0709267
0.0709267
0.0709267
0.0709267
0.0709267
0.0709267
0.0709267
0.0709267
0.0709267
0.0709267
0.0709267
0.0709267
0.0709267
0.0709267
0.0709267
0.0709267
0.0709267
0.0709267
0.0709267
0.0709267
0.0709267
0.0709267
0.0709267
0.0709267
0.0709267
0.0709267
0.0709267
0.0709267
0.0709267
0.0709267
0.0709267
0.0709267
0.0709267
0.0709267
0.0709267
0.0709267
0.0709267
0.0709267
0.0709267
0.0709267
0.0709267
0.0709267
0.0709267
0.0709267
0.0709267
0.0709267
0.0709267
0.0709267
0.0709267
0.0709267
0.0709267
0.0709267
0.0709267
0.0709267
0.0709267
0.0709267
0.0709267
0.0709267
0.0709267
0.0709267
0.0709267
0.0709267
0.0709267
0.0709267
0.0709267
0.0709267
0.0709267
0.0709267
0.0709267
0.0709267
0.0709267
0.0709267
0.0709267
0.0709267
0.0709267
0.0709267
0.0709267
0.0709267
0.0709267
0.0709267
0.0709267
0.0709267
0.0709267
0.0709267
0.0709267
0.0709267
0.0709267
0.0709267
0.0709267
0.0709267
0.0709267
0.0709267
0.0709267
0.0709267
0.0709267
0.0709267
0.0709267
0.0709267
0.0709267
0.0709267
0.0709267
0.0709267
0.0709267
0.0709267
0.0709267
0.0709267
0.0709267
0.0709267
0.0709267
0.0709267
0.0709267
0.0709267
0.0709267
0.0709267
0.0709267
0.0709267
0.0709267
0.0709267
0.0709267
0.0709267
0.0709267
0.0709267
0.0709267
0.0709267
0.0709267
0.0709267
0.0709267
0.0709267
0.0709267
0.0709267
0.0709267
0.0709267
0.0709267
0.0709267
0.0709267
0.0709267
0.0709267
0.0709267
0.0709267
0.0709267
0.0709267
0.0709267
0.0709267
0.0709267
0.0709267
0.0709267
0.0709267
0.0709267
0.0709267
0.0709267
0.0709267
0.0709267
0.0709267
0.0709267
0.0709267
0.0709267
0.0709267
0.0709267
0.0709267
0.0709267
0.0709267
0.0709267
0.0709267
0.0709267
0.0709267
0.0709267
0.0709267
0.0709267
0.0709267
0.0709267
0.0709267
0.0709267
0.0709267
0.0709267
0.0709267
0.0709267
0.0709267
0.0709267
0.0709267
0.0709267
0.0709267
0.0709267
0.0709267
0.0709267
0.0709267
0.0709267
0.0709267
0.0709267
0.0709267
0.0709267
0.0709267
0.0709267
0.0709267
0.0709267
0.0709267
0.0709267
0.0709267
0.0709267
0.0709267
0.0709267
0.0709267
0.0709267
0.0709267
0.0709267
0.0709267
0.0709267
0.0709267
0.0709267
0.0709267
0.0709267
0.0709267
0.0709267
0.0709267
0.0709267
0.0709267
0.0709267
0.0709267
0.0709267
0.0709267
0.0709267
0.0709267
0.0709267
0.0709267
0.0709267
0.0709267
0.0709267
0.0709267
0.0709267
0.0709267
0.0709267
0.0709267
0.0709267
0.0709267
0.0709267
0.0709267
0.0709267
0.0709267
0.0709267
0.0709267
0.0709267
0.0709267
0.0709267
0.0709267
0.0709267
0.0709267
0.0709267
0.0709267
0.0709267
0.0709267
0.0709267
0.0709267
0.0709267
0.0709267
0.0709267
0.0709267
0.0709267
0.0709267
0.0709267
0.0709267
0.0709267
0.0709267
0.0709267
0.0709267
0.0709267
0.0709267
0.0709267
0.0709267
0.0709267
0.0709267
0.0709267
0.0709267
0.0709267
0.0709267
0.0709267
0.0709267
0.0709267
0.0709267
0.0709267
0.0709267
0.0709267
0.0709267
0.0709267
0.0709267
0.0709267
0.0709267
0.0709267
0.0709267
0.0709267
0.0709267
0.0709267
0.0709267
0.0709267
0.0709267
0.0709267
0.0709267
0.0709267
0.0709267
0.0709267
0.0709267
0.0709267
0.0709267
0.0709266
0.0709266
0.0709266
0.0709266
0.0709266
0.0709266
0.0709266
0.0709266
0.0709266
0.0709265
0.0709265
0.0709265
0.0709265
0.0709265
0.0709264
0.0709264
0.0709264
0.0709264
0.0709263
0.0709263
0.0709262
0.0709262
0.0709262
0.0709261
0.070926
0.070926
0.0709259
0.0709258
0.0709258
0.0709257
0.0709256
0.0709255
0.0709254
0.0709253
0.0709252
0.070925
0.0709249
0.0709247
0.0709246
0.0709244
0.0709242
0.070924
0.0709237
0.0709235
0.0709232
0.0709229
0.0709226
0.0709223
0.0709219
0.0709216
0.0709211
0.0709207
0.0709202
0.0709197
0.0709191
0.0709185
0.0709179
0.0709172
0.0709165
0.0709157
0.0709148
0.0709139
0.070913
0.0709119
0.0709108
0.0709096
0.0709083
0.0709069
0.0709055
0.0709039
0.0709022
0.0709004
0.0708985
0.0708965
0.0708943
0.070892
0.0708895
0.0708868
0.070884
0.070881
0.0708778
0.0708744
0.0708708
0.0708669
0.0708628
0.0708584
0.0708537
0.0708488
0.0708435
0.0708379
0.070832
0.0708257
0.070819
0.070812
0.0708045
0.0707965
0.0707881
0.0707791
0.0707697
0.0707596
0.070749
0.0707378
0.070726
0.0707134
0.0707002
0.0706862
0.0706714
0.0706558
0.0706394
0.070622
0.0706037
0.0705844
0.070564
0.0705426
0.07052
0.0704962
0.0704712
0.0704449
0.0704172
0.0703881
0.0703575
0.0703253
0.0702916
0.0702561
0.0702189
0.0701799
0.0701389
0.070096
0.0700509
0.0700038
0.0699544
0.0699027
0.0698485
0.0697919
0.0697326
0.0696706
0.0696058
0.0695381
0.0694674
0.0693936
0.0693165
0.069236
0.0691521
0.0690646
0.0689734
0.0688783
0.0687793
0.0686762
0.0685688
0.0684571
0.0683408
0.0682199
0.0680943
0.0679636
0.067828
0.067687
0.0675408
0.0673889
0.0672314
0.0670681
0.0668987
0.0667232
0.0665414
0.066353
0.0661581
0.0659563
0.0657475
0.0655317
0.0653085
0.0650778
0.0648395
0.0645934
0.0643393
0.0640771
0.0638066
0.0635276
0.06324
0.0629436
0.0626383
0.0623238
0.0620001
0.061667
0.0613244
0.060972
0.0606099
0.0602377
0.0598554
0.0594628
0.0590599
0.0586465
0.0582225
0.0577878
0.0573422
0.0568857
0.0564182
0.0559396
0.0554499
0.0549489
0.0544366
0.053913
0.0533779
0.0528315
0.0522736
0.0517042
0.0511233
0.050531
0.0499273
0.0493121
0.0486855
0.0480476
0.0473984
0.0467381
0.0460666
0.0453841
0.0446908
0.0439867
0.0432719
0.0425467
0.0418113
0.0410657
0.0403102
0.0395449
0.0387702
0.0379862
0.0371981
0.0364077
0.0355975
0.0347793
0.0339534
0.0331201
0.0322797
0.0314326
0.0305792
0.0297198
0.028855
0.0279851
0.0271105
0.0262319
0.0253497
0.0244643
0.0235764
0.0226865
0.0217952
0.0209031
0.0200108
0.019119
0.0182283
0.0173396
0.0164535
0.0155707
0.0146922
0.0138187
0.0129512
0.0120906
0.0112378
0.010394
0.00956018
0.00873754
0.00792729
0.00713076
0.00634931
0.00558442
0.00483764
0.00411063
0.00340512
0.00272296
0.00206608
0.00143649
0.000836262
0.000267528
)
;

boundaryField
{
    fixedWall
    {
        type            zeroGradient;
    }
    outlet
    {
        type            inletOutlet;
        inletValue      uniform 0;
        value           uniform 0;
    }
    defaultFaces
    {
        type            empty;
    }
}


// ************************************************************************* //
