/*--------------------------------*- C++ -*----------------------------------*\
| =========                 |                                                 |
| \\      /  F ield         | OpenFOAM: The Open Source CFD Toolbox           |
|  \\    /   O peration     | Version:  2406                                  |
|   \\  /    A nd           | Website:  www.openfoam.com                      |
|    \\/     M anipulation  |                                                 |
\*---------------------------------------------------------------------------*/
FoamFile
{
    version     2.0;
    format      ascii;
    arch        "LSB;label=32;scalar=64";
    class       volScalarField;
    location    "14.9";
    object      O2;
}
// * * * * * * * * * * * * * * * * * * * * * * * * * * * * * * * * * * * * * //

dimensions      [0 0 0 0 0 0 0];

internalField   nonuniform List<scalar> 
1000
(
9.79431e-07
9.78164e-07
9.7583e-07
9.72579e-07
9.68531e-07
9.63779e-07
9.58401e-07
9.52462e-07
9.46019e-07
9.39118e-07
9.31802e-07
9.24108e-07
9.16069e-07
9.07714e-07
8.99071e-07
8.90165e-07
8.81017e-07
8.71649e-07
8.6208e-07
8.52327e-07
8.42408e-07
8.32338e-07
8.22132e-07
8.11803e-07
8.01366e-07
7.90832e-07
7.80213e-07
7.69521e-07
7.58766e-07
7.4796e-07
7.37112e-07
7.26232e-07
7.15329e-07
7.04414e-07
6.93493e-07
6.82578e-07
6.71674e-07
6.60792e-07
6.49939e-07
6.39122e-07
6.28349e-07
6.17629e-07
6.06967e-07
5.96371e-07
5.85847e-07
5.75403e-07
5.65044e-07
5.54777e-07
5.44607e-07
5.34541e-07
5.24583e-07
5.14738e-07
5.05012e-07
4.9541e-07
4.85934e-07
4.76591e-07
4.67382e-07
4.58313e-07
4.49385e-07
4.40602e-07
4.31966e-07
4.23481e-07
4.15147e-07
4.06966e-07
3.98941e-07
3.91072e-07
3.83361e-07
3.75807e-07
3.68412e-07
3.61176e-07
3.54099e-07
3.4718e-07
3.40419e-07
3.33815e-07
3.27369e-07
3.21078e-07
3.14941e-07
3.08958e-07
3.03126e-07
2.97445e-07
2.91912e-07
2.86526e-07
2.81284e-07
2.76185e-07
2.71226e-07
2.66406e-07
2.61721e-07
2.57171e-07
2.52751e-07
2.48461e-07
2.44296e-07
2.40256e-07
2.36337e-07
2.32537e-07
2.28853e-07
2.25282e-07
2.21823e-07
2.18473e-07
2.15228e-07
2.12087e-07
2.09047e-07
2.06105e-07
2.03259e-07
2.00507e-07
1.97845e-07
1.95273e-07
1.92786e-07
1.90384e-07
1.88063e-07
1.85821e-07
1.83657e-07
1.81568e-07
1.79551e-07
1.77605e-07
1.75728e-07
1.73917e-07
1.72171e-07
1.70487e-07
1.68864e-07
1.673e-07
1.65793e-07
1.64342e-07
1.62944e-07
1.61598e-07
1.60302e-07
1.59055e-07
1.57855e-07
1.567e-07
1.55589e-07
1.54521e-07
1.53495e-07
1.52508e-07
1.5156e-07
1.50649e-07
1.49774e-07
1.48934e-07
1.48127e-07
1.47353e-07
1.4661e-07
1.45897e-07
1.45214e-07
1.44559e-07
1.43931e-07
1.43329e-07
1.42753e-07
1.42201e-07
1.41673e-07
1.41168e-07
1.40684e-07
1.40222e-07
1.39779e-07
1.39357e-07
1.38954e-07
1.38568e-07
1.38201e-07
1.3785e-07
1.37516e-07
1.37197e-07
1.36894e-07
1.36605e-07
1.3633e-07
1.36068e-07
1.3582e-07
1.35584e-07
1.3536e-07
1.35148e-07
1.34947e-07
1.34756e-07
1.34576e-07
1.34406e-07
1.34245e-07
1.34094e-07
1.33951e-07
1.33817e-07
1.33691e-07
1.33572e-07
1.33462e-07
1.33358e-07
1.33262e-07
1.33172e-07
1.33088e-07
1.33011e-07
1.3294e-07
1.32874e-07
1.32814e-07
1.32759e-07
1.32709e-07
1.32663e-07
1.32623e-07
1.32587e-07
1.32555e-07
1.32527e-07
1.32503e-07
1.32483e-07
1.32466e-07
1.32453e-07
1.32444e-07
1.32437e-07
1.32434e-07
1.32433e-07
1.32435e-07
1.3244e-07
1.32448e-07
1.32458e-07
1.3247e-07
1.32484e-07
1.32501e-07
1.3252e-07
1.32541e-07
1.32563e-07
1.32588e-07
1.32614e-07
1.32642e-07
1.32672e-07
1.32703e-07
1.32735e-07
1.32769e-07
1.32805e-07
1.32841e-07
1.32879e-07
1.32918e-07
1.32958e-07
1.33e-07
1.33042e-07
1.33085e-07
1.33129e-07
1.33175e-07
1.33221e-07
1.33268e-07
1.33315e-07
1.33363e-07
1.33412e-07
1.33462e-07
1.33513e-07
1.33564e-07
1.33615e-07
1.33668e-07
1.3372e-07
1.33774e-07
1.33828e-07
1.33882e-07
1.33937e-07
1.33992e-07
1.34048e-07
1.34104e-07
1.3416e-07
1.34217e-07
1.34274e-07
1.34332e-07
1.3439e-07
1.34448e-07
1.34506e-07
1.34565e-07
1.34624e-07
1.34683e-07
1.34743e-07
1.34803e-07
1.34863e-07
1.34923e-07
1.34983e-07
1.35044e-07
1.35105e-07
1.35166e-07
1.35227e-07
1.35289e-07
1.3535e-07
1.35412e-07
1.35474e-07
1.35536e-07
1.35598e-07
1.3566e-07
1.35722e-07
1.35785e-07
1.35848e-07
1.3591e-07
1.35973e-07
1.36036e-07
1.36099e-07
1.36162e-07
1.36226e-07
1.36289e-07
1.36353e-07
1.36416e-07
1.3648e-07
1.36544e-07
1.36607e-07
1.36671e-07
1.36735e-07
1.36799e-07
1.36864e-07
1.36928e-07
1.36992e-07
1.37056e-07
1.37121e-07
1.37185e-07
1.3725e-07
1.37315e-07
1.37379e-07
1.37444e-07
1.37509e-07
1.37574e-07
1.37639e-07
1.37703e-07
1.37769e-07
1.37834e-07
1.37899e-07
1.37964e-07
1.3803e-07
1.38095e-07
1.3816e-07
1.38226e-07
1.38291e-07
1.38357e-07
1.38423e-07
1.38489e-07
1.38554e-07
1.3862e-07
1.38686e-07
1.38752e-07
1.38818e-07
1.38884e-07
1.3895e-07
1.39016e-07
1.39082e-07
1.39148e-07
1.39215e-07
1.39281e-07
1.39348e-07
1.39414e-07
1.39481e-07
1.39547e-07
1.39614e-07
1.39681e-07
1.39748e-07
1.39814e-07
1.39881e-07
1.39948e-07
1.40015e-07
1.40082e-07
1.4015e-07
1.40217e-07
1.40284e-07
1.40351e-07
1.40419e-07
1.40486e-07
1.40554e-07
1.40621e-07
1.40689e-07
1.40757e-07
1.40824e-07
1.40892e-07
1.4096e-07
1.41028e-07
1.41096e-07
1.41164e-07
1.41232e-07
1.413e-07
1.41369e-07
1.41437e-07
1.41505e-07
1.41574e-07
1.41642e-07
1.41711e-07
1.4178e-07
1.41848e-07
1.41917e-07
1.41986e-07
1.42055e-07
1.42124e-07
1.42193e-07
1.42262e-07
1.42332e-07
1.42401e-07
1.4247e-07
1.4254e-07
1.42609e-07
1.42678e-07
1.42748e-07
1.42818e-07
1.42887e-07
1.42957e-07
1.43027e-07
1.43097e-07
1.43167e-07
1.43237e-07
1.43307e-07
1.43378e-07
1.43448e-07
1.43518e-07
1.43589e-07
1.43659e-07
1.4373e-07
1.43801e-07
1.43871e-07
1.43942e-07
1.44013e-07
1.44084e-07
1.44155e-07
1.44226e-07
1.44297e-07
1.44369e-07
1.4444e-07
1.44511e-07
1.44583e-07
1.44654e-07
1.44726e-07
1.44798e-07
1.4487e-07
1.44941e-07
1.45013e-07
1.45085e-07
1.45157e-07
1.4523e-07
1.45302e-07
1.45374e-07
1.45446e-07
1.45519e-07
1.45591e-07
1.45664e-07
1.45737e-07
1.45809e-07
1.45882e-07
1.45955e-07
1.46028e-07
1.46101e-07
1.46174e-07
1.46247e-07
1.46321e-07
1.46394e-07
1.46467e-07
1.46541e-07
1.46614e-07
1.46688e-07
1.46761e-07
1.46835e-07
1.46909e-07
1.46983e-07
1.47057e-07
1.47131e-07
1.47205e-07
1.4728e-07
1.47354e-07
1.47428e-07
1.47503e-07
1.47577e-07
1.47652e-07
1.47727e-07
1.47801e-07
1.47876e-07
1.47951e-07
1.48026e-07
1.48101e-07
1.48176e-07
1.48252e-07
1.48327e-07
1.48402e-07
1.48478e-07
1.48553e-07
1.48629e-07
1.48704e-07
1.4878e-07
1.48856e-07
1.48932e-07
1.49008e-07
1.49084e-07
1.4916e-07
1.49237e-07
1.49313e-07
1.49389e-07
1.49466e-07
1.49542e-07
1.49619e-07
1.49696e-07
1.49773e-07
1.49849e-07
1.49926e-07
1.50003e-07
1.50081e-07
1.50158e-07
1.50235e-07
1.50312e-07
1.5039e-07
1.50467e-07
1.50545e-07
1.50623e-07
1.507e-07
1.50778e-07
1.50856e-07
1.50934e-07
1.51012e-07
1.5109e-07
1.51169e-07
1.51247e-07
1.51325e-07
1.51404e-07
1.51483e-07
1.51561e-07
1.5164e-07
1.51719e-07
1.51798e-07
1.51877e-07
1.51956e-07
1.52035e-07
1.52114e-07
1.52193e-07
1.52273e-07
1.52352e-07
1.52432e-07
1.52511e-07
1.52591e-07
1.52671e-07
1.52751e-07
1.52831e-07
1.52911e-07
1.52991e-07
1.53071e-07
1.53152e-07
1.53232e-07
1.53312e-07
1.53393e-07
1.53474e-07
1.53554e-07
1.53635e-07
1.53716e-07
1.53797e-07
1.53878e-07
1.53959e-07
1.54041e-07
1.54122e-07
1.54203e-07
1.54285e-07
1.54366e-07
1.54448e-07
1.5453e-07
1.54612e-07
1.54694e-07
1.54776e-07
1.54858e-07
1.5494e-07
1.55022e-07
1.55105e-07
1.55187e-07
1.5527e-07
1.55352e-07
1.55435e-07
1.55518e-07
1.55601e-07
1.55684e-07
1.55767e-07
1.5585e-07
1.55933e-07
1.56016e-07
1.561e-07
1.56183e-07
1.56267e-07
1.5635e-07
1.56434e-07
1.56518e-07
1.56602e-07
1.56686e-07
1.5677e-07
1.56854e-07
1.56939e-07
1.57023e-07
1.57108e-07
1.57192e-07
1.57277e-07
1.57362e-07
1.57446e-07
1.57531e-07
1.57616e-07
1.57702e-07
1.57787e-07
1.57872e-07
1.57958e-07
1.58043e-07
1.58129e-07
1.58214e-07
1.583e-07
1.58386e-07
1.58472e-07
1.58558e-07
1.58644e-07
1.5873e-07
1.58817e-07
1.58903e-07
1.5899e-07
1.59076e-07
1.59163e-07
1.5925e-07
1.59337e-07
1.59424e-07
1.59511e-07
1.59598e-07
1.59685e-07
1.59773e-07
1.5986e-07
1.59948e-07
1.60036e-07
1.60123e-07
1.60211e-07
1.60299e-07
1.60387e-07
1.60475e-07
1.60564e-07
1.60652e-07
1.60741e-07
1.60829e-07
1.60918e-07
1.61007e-07
1.61095e-07
1.61184e-07
1.61273e-07
1.61363e-07
1.61452e-07
1.61541e-07
1.61631e-07
1.6172e-07
1.6181e-07
1.619e-07
1.6199e-07
1.62079e-07
1.6217e-07
1.6226e-07
1.6235e-07
1.6244e-07
1.62531e-07
1.62621e-07
1.62712e-07
1.62803e-07
1.62894e-07
1.62985e-07
1.63076e-07
1.63167e-07
1.63258e-07
1.6335e-07
1.63441e-07
1.63533e-07
1.63624e-07
1.63716e-07
1.63808e-07
1.639e-07
1.63992e-07
1.64084e-07
1.64177e-07
1.64269e-07
1.64362e-07
1.64454e-07
1.64547e-07
1.6464e-07
1.64733e-07
1.64826e-07
1.64919e-07
1.65013e-07
1.65106e-07
1.65199e-07
1.65292e-07
1.65386e-07
1.6548e-07
1.65574e-07
1.65668e-07
1.65762e-07
1.65856e-07
1.6595e-07
1.66045e-07
1.66139e-07
1.66234e-07
1.66329e-07
1.66423e-07
1.66518e-07
1.66613e-07
1.66709e-07
1.66804e-07
1.66899e-07
1.66994e-07
1.6709e-07
1.67185e-07
1.67281e-07
1.67377e-07
1.67473e-07
1.67569e-07
1.67665e-07
1.67762e-07
1.67858e-07
1.67955e-07
1.68051e-07
1.68148e-07
1.68245e-07
1.68342e-07
1.68439e-07
1.68536e-07
1.68634e-07
1.68731e-07
1.68829e-07
1.68927e-07
1.69024e-07
1.69122e-07
1.6922e-07
1.69318e-07
1.69417e-07
1.69515e-07
1.69614e-07
1.69712e-07
1.69811e-07
1.6991e-07
1.70009e-07
1.70108e-07
1.70207e-07
1.70307e-07
1.70406e-07
1.70506e-07
1.70606e-07
1.70706e-07
1.70806e-07
1.70906e-07
1.71006e-07
1.71107e-07
1.71207e-07
1.71308e-07
1.71409e-07
1.7151e-07
1.71612e-07
1.71713e-07
1.71815e-07
1.71916e-07
1.72018e-07
1.7212e-07
1.72223e-07
1.72325e-07
1.72428e-07
1.72531e-07
1.72634e-07
1.72737e-07
1.7284e-07
1.72944e-07
1.73048e-07
1.73152e-07
1.73256e-07
1.73361e-07
1.73466e-07
1.73571e-07
1.73676e-07
1.73782e-07
1.73888e-07
1.73994e-07
1.741e-07
1.74207e-07
1.74314e-07
1.74422e-07
1.7453e-07
1.74638e-07
1.74747e-07
1.74856e-07
1.74966e-07
1.75076e-07
1.75186e-07
1.75297e-07
1.75409e-07
1.75521e-07
1.75634e-07
1.75747e-07
1.75861e-07
1.75976e-07
1.76091e-07
1.76207e-07
1.76324e-07
1.76442e-07
1.76561e-07
1.7668e-07
1.76801e-07
1.76922e-07
1.77045e-07
1.77169e-07
1.77294e-07
1.7742e-07
1.77548e-07
1.77677e-07
1.77807e-07
1.77939e-07
1.78073e-07
1.78208e-07
1.78346e-07
1.78485e-07
1.78626e-07
1.78769e-07
1.78915e-07
1.79063e-07
1.79214e-07
1.79367e-07
1.79523e-07
1.79682e-07
1.79844e-07
1.80009e-07
1.80178e-07
1.8035e-07
1.80526e-07
1.80706e-07
1.80891e-07
1.8108e-07
1.81273e-07
1.81472e-07
1.81675e-07
1.81885e-07
1.821e-07
1.82321e-07
1.82548e-07
1.82782e-07
1.83023e-07
1.83272e-07
1.83528e-07
1.83792e-07
1.84065e-07
1.84347e-07
1.84639e-07
1.8494e-07
1.85252e-07
1.85575e-07
1.85909e-07
1.86256e-07
1.86615e-07
1.86987e-07
1.87373e-07
1.87774e-07
1.8819e-07
1.88622e-07
1.8907e-07
1.89536e-07
1.90021e-07
1.90524e-07
1.91048e-07
1.91593e-07
1.92159e-07
1.92749e-07
1.93363e-07
1.94002e-07
1.94667e-07
1.95359e-07
1.9608e-07
1.96831e-07
1.97613e-07
1.98427e-07
1.99276e-07
2.0016e-07
2.0108e-07
2.0204e-07
2.03039e-07
2.0408e-07
2.05165e-07
2.06295e-07
2.07472e-07
2.08698e-07
2.09975e-07
2.11305e-07
2.12691e-07
2.14133e-07
2.15636e-07
2.172e-07
2.18829e-07
2.20524e-07
2.22289e-07
2.24125e-07
2.26036e-07
2.28025e-07
2.30093e-07
2.32244e-07
2.34481e-07
2.36807e-07
2.39225e-07
2.41739e-07
2.4435e-07
2.47063e-07
2.49882e-07
2.52808e-07
2.55847e-07
2.59001e-07
2.62274e-07
2.6567e-07
2.69192e-07
2.72845e-07
2.76631e-07
2.80555e-07
2.84621e-07
2.88832e-07
2.93193e-07
2.97706e-07
3.02377e-07
3.07209e-07
3.12205e-07
3.1737e-07
3.22708e-07
3.28221e-07
3.33914e-07
3.39789e-07
3.45851e-07
3.52103e-07
3.58548e-07
3.65188e-07
3.72027e-07
3.79066e-07
3.86308e-07
3.93756e-07
4.0141e-07
4.09272e-07
4.17343e-07
4.25624e-07
4.34114e-07
4.42813e-07
4.51721e-07
4.60836e-07
4.70155e-07
4.79676e-07
4.89396e-07
4.99311e-07
5.09415e-07
5.19703e-07
5.30168e-07
5.40804e-07
5.51601e-07
5.6255e-07
5.73641e-07
5.84862e-07
5.962e-07
6.07642e-07
6.19172e-07
6.30775e-07
6.42433e-07
6.54128e-07
6.65839e-07
6.77545e-07
6.89224e-07
7.00852e-07
7.12405e-07
7.23856e-07
7.35177e-07
7.46342e-07
7.57319e-07
7.68079e-07
7.78589e-07
7.88819e-07
7.98734e-07
8.08302e-07
8.17487e-07
8.26255e-07
8.34571e-07
8.42399e-07
8.49704e-07
8.56452e-07
8.62606e-07
8.68132e-07
8.72995e-07
8.77162e-07
8.80599e-07
8.83275e-07
8.85158e-07
8.86212e-07
8.86417e-07
8.85746e-07
8.8417e-07
8.81664e-07
8.78205e-07
8.73771e-07
8.68344e-07
8.61905e-07
8.54438e-07
8.4593e-07
8.36368e-07
8.25744e-07
8.1405e-07
8.01281e-07
7.87435e-07
7.7251e-07
7.5651e-07
7.3944e-07
7.21308e-07
7.02126e-07
6.81907e-07
6.6067e-07
6.38437e-07
6.15232e-07
5.91085e-07
5.66032e-07
5.40111e-07
5.13366e-07
4.85847e-07
4.57612e-07
4.28722e-07
3.99249e-07
3.6927e-07
3.38873e-07
3.08153e-07
2.77218e-07
2.46183e-07
2.15177e-07
1.84341e-07
1.53827e-07
1.23801e-07
9.44433e-08
6.59436e-08
3.85044e-08
1.23375e-08
)
;

boundaryField
{
    fixedWall
    {
        type            zeroGradient;
    }
    outlet
    {
        type            inletOutlet;
        inletValue      uniform 0;
        value           uniform 0;
    }
    defaultFaces
    {
        type            empty;
    }
}


// ************************************************************************* //
