/*--------------------------------*- C++ -*----------------------------------*\
| =========                 |                                                 |
| \\      /  F ield         | OpenFOAM: The Open Source CFD Toolbox           |
|  \\    /   O peration     | Version:  2406                                  |
|   \\  /    A nd           | Website:  www.openfoam.com                      |
|    \\/     M anipulation  |                                                 |
\*---------------------------------------------------------------------------*/
FoamFile
{
    version     2.0;
    format      ascii;
    arch        "LSB;label=32;scalar=64";
    class       surfaceScalarField;
    location    "14.9";
    object      phi;
}
// * * * * * * * * * * * * * * * * * * * * * * * * * * * * * * * * * * * * * //

dimensions      [1 0 -1 0 0 0 0];

oriented        oriented;

internalField   nonuniform List<scalar> 
999
(
-1.00563e-08
-3.44372e-08
-6.85042e-08
-1.09229e-07
-1.54596e-07
-2.03196e-07
-2.54043e-07
-3.06415e-07
-3.59789e-07
-4.13778e-07
-4.68084e-07
-5.22477e-07
-5.76793e-07
-6.30903e-07
-6.8471e-07
-7.38127e-07
-7.911e-07
-8.43583e-07
-8.95537e-07
-9.46938e-07
-9.97766e-07
-1.04801e-06
-1.09766e-06
-1.1467e-06
-1.19514e-06
-1.24296e-06
-1.29018e-06
-1.3368e-06
-1.3828e-06
-1.42822e-06
-1.47303e-06
-1.51725e-06
-1.56088e-06
-1.60393e-06
-1.64641e-06
-1.68832e-06
-1.72966e-06
-1.77045e-06
-1.81068e-06
-1.85037e-06
-1.88952e-06
-1.92813e-06
-1.96622e-06
-2.00379e-06
-2.04084e-06
-2.07738e-06
-2.11342e-06
-2.14895e-06
-2.184e-06
-2.21855e-06
-2.25262e-06
-2.28622e-06
-2.31934e-06
-2.35199e-06
-2.38419e-06
-2.41592e-06
-2.4472e-06
-2.47804e-06
-2.50843e-06
-2.53838e-06
-2.56789e-06
-2.59698e-06
-2.62564e-06
-2.65388e-06
-2.68171e-06
-2.70912e-06
-2.73612e-06
-2.76272e-06
-2.78891e-06
-2.81472e-06
-2.84012e-06
-2.86514e-06
-2.88978e-06
-2.91403e-06
-2.93791e-06
-2.96141e-06
-2.98454e-06
-3.00731e-06
-3.02972e-06
-3.05176e-06
-3.07346e-06
-3.0948e-06
-3.11579e-06
-3.13644e-06
-3.15674e-06
-3.17672e-06
-3.19635e-06
-3.21566e-06
-3.23464e-06
-3.2533e-06
-3.27164e-06
-3.28966e-06
-3.30737e-06
-3.32477e-06
-3.34186e-06
-3.35865e-06
-3.37515e-06
-3.39134e-06
-3.40724e-06
-3.42286e-06
-3.43819e-06
-3.45323e-06
-3.468e-06
-3.48249e-06
-3.49671e-06
-3.51066e-06
-3.52434e-06
-3.53776e-06
-3.55093e-06
-3.56383e-06
-3.57648e-06
-3.58889e-06
-3.60104e-06
-3.61296e-06
-3.62463e-06
-3.63607e-06
-3.64727e-06
-3.65825e-06
-3.669e-06
-3.67952e-06
-3.68982e-06
-3.69991e-06
-3.70978e-06
-3.71944e-06
-3.72889e-06
-3.73813e-06
-3.74718e-06
-3.75602e-06
-3.76467e-06
-3.77313e-06
-3.78139e-06
-3.78947e-06
-3.79737e-06
-3.80508e-06
-3.81262e-06
-3.81998e-06
-3.82717e-06
-3.83419e-06
-3.84105e-06
-3.84774e-06
-3.85427e-06
-3.86064e-06
-3.86686e-06
-3.87292e-06
-3.87884e-06
-3.88461e-06
-3.89024e-06
-3.89572e-06
-3.90107e-06
-3.90628e-06
-3.91135e-06
-3.9163e-06
-3.92111e-06
-3.9258e-06
-3.93037e-06
-3.93482e-06
-3.93915e-06
-3.94337e-06
-3.94747e-06
-3.95145e-06
-3.95534e-06
-3.95911e-06
-3.96278e-06
-3.96635e-06
-3.96982e-06
-3.97319e-06
-3.97646e-06
-3.97964e-06
-3.98274e-06
-3.98574e-06
-3.98866e-06
-3.99149e-06
-3.99423e-06
-3.9969e-06
-3.99949e-06
-4.002e-06
-4.00443e-06
-4.0068e-06
-4.00909e-06
-4.01131e-06
-4.01346e-06
-4.01556e-06
-4.01758e-06
-4.01954e-06
-4.02143e-06
-4.02327e-06
-4.02505e-06
-4.02677e-06
-4.02844e-06
-4.03006e-06
-4.03162e-06
-4.03313e-06
-4.03459e-06
-4.03601e-06
-4.03737e-06
-4.03868e-06
-4.03995e-06
-4.04118e-06
-4.04236e-06
-4.04351e-06
-4.04462e-06
-4.04569e-06
-4.04673e-06
-4.04772e-06
-4.04868e-06
-4.04961e-06
-4.05051e-06
-4.05137e-06
-4.0522e-06
-4.05301e-06
-4.05379e-06
-4.05454e-06
-4.05526e-06
-4.05596e-06
-4.05663e-06
-4.05727e-06
-4.0579e-06
-4.0585e-06
-4.05907e-06
-4.05963e-06
-4.06016e-06
-4.06067e-06
-4.06116e-06
-4.06164e-06
-4.0621e-06
-4.06253e-06
-4.06296e-06
-4.06336e-06
-4.06375e-06
-4.06412e-06
-4.06448e-06
-4.06483e-06
-4.06516e-06
-4.06548e-06
-4.06579e-06
-4.06608e-06
-4.06636e-06
-4.06663e-06
-4.06689e-06
-4.06713e-06
-4.06737e-06
-4.0676e-06
-4.06781e-06
-4.06802e-06
-4.06822e-06
-4.06841e-06
-4.06859e-06
-4.06876e-06
-4.06893e-06
-4.06909e-06
-4.06924e-06
-4.06939e-06
-4.06953e-06
-4.06966e-06
-4.06979e-06
-4.06991e-06
-4.07003e-06
-4.07014e-06
-4.07025e-06
-4.07035e-06
-4.07044e-06
-4.07053e-06
-4.07062e-06
-4.0707e-06
-4.07078e-06
-4.07086e-06
-4.07093e-06
-4.071e-06
-4.07106e-06
-4.07112e-06
-4.07118e-06
-4.07123e-06
-4.07129e-06
-4.07134e-06
-4.07138e-06
-4.07143e-06
-4.07147e-06
-4.07151e-06
-4.07155e-06
-4.07159e-06
-4.07162e-06
-4.07165e-06
-4.07168e-06
-4.07171e-06
-4.07174e-06
-4.07177e-06
-4.07179e-06
-4.07181e-06
-4.07184e-06
-4.07186e-06
-4.07188e-06
-4.07189e-06
-4.07191e-06
-4.07193e-06
-4.07194e-06
-4.07195e-06
-4.07197e-06
-4.07198e-06
-4.07199e-06
-4.072e-06
-4.07201e-06
-4.07202e-06
-4.07203e-06
-4.07203e-06
-4.07204e-06
-4.07205e-06
-4.07206e-06
-4.07206e-06
-4.07207e-06
-4.07207e-06
-4.07208e-06
-4.07208e-06
-4.07208e-06
-4.07209e-06
-4.07209e-06
-4.07209e-06
-4.07209e-06
-4.0721e-06
-4.0721e-06
-4.0721e-06
-4.0721e-06
-4.0721e-06
-4.0721e-06
-4.0721e-06
-4.0721e-06
-4.0721e-06
-4.07211e-06
-4.07211e-06
-4.0721e-06
-4.0721e-06
-4.0721e-06
-4.0721e-06
-4.0721e-06
-4.0721e-06
-4.0721e-06
-4.0721e-06
-4.0721e-06
-4.0721e-06
-4.0721e-06
-4.0721e-06
-4.0721e-06
-4.0721e-06
-4.0721e-06
-4.0721e-06
-4.0721e-06
-4.0721e-06
-4.07209e-06
-4.07209e-06
-4.07209e-06
-4.07209e-06
-4.07209e-06
-4.07209e-06
-4.07209e-06
-4.07209e-06
-4.07209e-06
-4.07209e-06
-4.07208e-06
-4.07208e-06
-4.07208e-06
-4.07208e-06
-4.07208e-06
-4.07208e-06
-4.07208e-06
-4.07208e-06
-4.07208e-06
-4.07208e-06
-4.07208e-06
-4.07208e-06
-4.07208e-06
-4.07208e-06
-4.07208e-06
-4.07208e-06
-4.07208e-06
-4.07208e-06
-4.07208e-06
-4.07208e-06
-4.07208e-06
-4.07208e-06
-4.07208e-06
-4.07208e-06
-4.07208e-06
-4.07208e-06
-4.07208e-06
-4.07208e-06
-4.07208e-06
-4.07208e-06
-4.07208e-06
-4.07208e-06
-4.07208e-06
-4.07208e-06
-4.07208e-06
-4.07208e-06
-4.07208e-06
-4.07208e-06
-4.07208e-06
-4.07208e-06
-4.07208e-06
-4.07208e-06
-4.07208e-06
-4.07208e-06
-4.07208e-06
-4.07208e-06
-4.07208e-06
-4.07208e-06
-4.07208e-06
-4.07208e-06
-4.07208e-06
-4.07208e-06
-4.07208e-06
-4.07208e-06
-4.07208e-06
-4.07208e-06
-4.07208e-06
-4.07208e-06
-4.07208e-06
-4.07208e-06
-4.07208e-06
-4.07208e-06
-4.07208e-06
-4.07208e-06
-4.07208e-06
-4.07208e-06
-4.07208e-06
-4.07209e-06
-4.07209e-06
-4.07209e-06
-4.07209e-06
-4.07209e-06
-4.07209e-06
-4.07209e-06
-4.07209e-06
-4.07209e-06
-4.07209e-06
-4.07209e-06
-4.07209e-06
-4.07209e-06
-4.07209e-06
-4.07209e-06
-4.07209e-06
-4.07209e-06
-4.07209e-06
-4.07209e-06
-4.07209e-06
-4.07209e-06
-4.0721e-06
-4.07209e-06
-4.07209e-06
-4.0721e-06
-4.07209e-06
-4.0721e-06
-4.0721e-06
-4.0721e-06
-4.0721e-06
-4.0721e-06
-4.0721e-06
-4.0721e-06
-4.0721e-06
-4.0721e-06
-4.0721e-06
-4.0721e-06
-4.0721e-06
-4.0721e-06
-4.0721e-06
-4.0721e-06
-4.0721e-06
-4.0721e-06
-4.0721e-06
-4.0721e-06
-4.0721e-06
-4.0721e-06
-4.0721e-06
-4.0721e-06
-4.0721e-06
-4.0721e-06
-4.0721e-06
-4.0721e-06
-4.0721e-06
-4.0721e-06
-4.0721e-06
-4.0721e-06
-4.0721e-06
-4.0721e-06
-4.0721e-06
-4.0721e-06
-4.0721e-06
-4.0721e-06
-4.0721e-06
-4.0721e-06
-4.0721e-06
-4.0721e-06
-4.0721e-06
-4.0721e-06
-4.0721e-06
-4.0721e-06
-4.07209e-06
-4.07209e-06
-4.07209e-06
-4.07209e-06
-4.07209e-06
-4.07209e-06
-4.07209e-06
-4.07209e-06
-4.07209e-06
-4.07209e-06
-4.0721e-06
-4.07209e-06
-4.07209e-06
-4.07209e-06
-4.07209e-06
-4.07209e-06
-4.07209e-06
-4.07209e-06
-4.07209e-06
-4.07209e-06
-4.07209e-06
-4.07209e-06
-4.07209e-06
-4.07209e-06
-4.07209e-06
-4.07209e-06
-4.07209e-06
-4.07209e-06
-4.07209e-06
-4.07209e-06
-4.07209e-06
-4.07208e-06
-4.07208e-06
-4.07208e-06
-4.07208e-06
-4.07208e-06
-4.07208e-06
-4.07208e-06
-4.07208e-06
-4.07208e-06
-4.07208e-06
-4.07208e-06
-4.07208e-06
-4.07208e-06
-4.07208e-06
-4.07208e-06
-4.07208e-06
-4.07208e-06
-4.07208e-06
-4.07208e-06
-4.07208e-06
-4.07208e-06
-4.07208e-06
-4.07208e-06
-4.07208e-06
-4.07208e-06
-4.07208e-06
-4.07208e-06
-4.07208e-06
-4.07208e-06
-4.07208e-06
-4.07208e-06
-4.07208e-06
-4.07208e-06
-4.07208e-06
-4.07208e-06
-4.07208e-06
-4.07208e-06
-4.07208e-06
-4.07208e-06
-4.07208e-06
-4.07207e-06
-4.07207e-06
-4.07207e-06
-4.07207e-06
-4.07207e-06
-4.07207e-06
-4.07207e-06
-4.07207e-06
-4.07207e-06
-4.07207e-06
-4.07207e-06
-4.07207e-06
-4.07207e-06
-4.07207e-06
-4.07207e-06
-4.07207e-06
-4.07207e-06
-4.07207e-06
-4.07207e-06
-4.07207e-06
-4.07207e-06
-4.07207e-06
-4.07207e-06
-4.07207e-06
-4.07207e-06
-4.07207e-06
-4.07207e-06
-4.07207e-06
-4.07207e-06
-4.07207e-06
-4.07207e-06
-4.07207e-06
-4.07207e-06
-4.07207e-06
-4.07207e-06
-4.07207e-06
-4.07207e-06
-4.07207e-06
-4.07207e-06
-4.07207e-06
-4.07207e-06
-4.07207e-06
-4.07207e-06
-4.07207e-06
-4.07207e-06
-4.07207e-06
-4.07207e-06
-4.07207e-06
-4.07207e-06
-4.07207e-06
-4.07207e-06
-4.07207e-06
-4.07207e-06
-4.07207e-06
-4.07207e-06
-4.07207e-06
-4.07207e-06
-4.07207e-06
-4.07207e-06
-4.07207e-06
-4.07207e-06
-4.07207e-06
-4.07207e-06
-4.07207e-06
-4.07207e-06
-4.07207e-06
-4.07207e-06
-4.07207e-06
-4.07207e-06
-4.07207e-06
-4.07207e-06
-4.07207e-06
-4.07207e-06
-4.07207e-06
-4.07207e-06
-4.07207e-06
-4.07207e-06
-4.07207e-06
-4.07207e-06
-4.07207e-06
-4.07207e-06
-4.07207e-06
-4.07207e-06
-4.07207e-06
-4.07207e-06
-4.07207e-06
-4.07207e-06
-4.07207e-06
-4.07207e-06
-4.07207e-06
-4.07207e-06
-4.07207e-06
-4.07206e-06
-4.07206e-06
-4.07206e-06
-4.07206e-06
-4.07206e-06
-4.07206e-06
-4.07206e-06
-4.07206e-06
-4.07206e-06
-4.07206e-06
-4.07206e-06
-4.07206e-06
-4.07206e-06
-4.07206e-06
-4.07206e-06
-4.07206e-06
-4.07206e-06
-4.07206e-06
-4.07206e-06
-4.07207e-06
-4.07207e-06
-4.07207e-06
-4.07207e-06
-4.07207e-06
-4.07207e-06
-4.07207e-06
-4.07207e-06
-4.07207e-06
-4.07208e-06
-4.07208e-06
-4.07208e-06
-4.07208e-06
-4.07209e-06
-4.07209e-06
-4.07209e-06
-4.0721e-06
-4.0721e-06
-4.07211e-06
-4.07211e-06
-4.07211e-06
-4.07212e-06
-4.07213e-06
-4.07213e-06
-4.07214e-06
-4.07215e-06
-4.07215e-06
-4.07216e-06
-4.07217e-06
-4.07218e-06
-4.07219e-06
-4.07221e-06
-4.07222e-06
-4.07223e-06
-4.07224e-06
-4.07226e-06
-4.07228e-06
-4.07229e-06
-4.07231e-06
-4.07233e-06
-4.07235e-06
-4.07237e-06
-4.0724e-06
-4.07242e-06
-4.07245e-06
-4.07248e-06
-4.07251e-06
-4.07254e-06
-4.07258e-06
-4.07262e-06
-4.07266e-06
-4.0727e-06
-4.07274e-06
-4.07279e-06
-4.07284e-06
-4.0729e-06
-4.07296e-06
-4.07302e-06
-4.07308e-06
-4.07315e-06
-4.07322e-06
-4.0733e-06
-4.07339e-06
-4.07347e-06
-4.07357e-06
-4.07367e-06
-4.07377e-06
-4.07388e-06
-4.074e-06
-4.07412e-06
-4.07426e-06
-4.0744e-06
-4.07455e-06
-4.0747e-06
-4.07487e-06
-4.07505e-06
-4.07523e-06
-4.07543e-06
-4.07564e-06
-4.07586e-06
-4.07609e-06
-4.07634e-06
-4.0766e-06
-4.07687e-06
-4.07716e-06
-4.07747e-06
-4.07779e-06
-4.07813e-06
-4.07849e-06
-4.07887e-06
-4.07927e-06
-4.07969e-06
-4.08013e-06
-4.0806e-06
-4.08109e-06
-4.08161e-06
-4.08215e-06
-4.08272e-06
-4.08333e-06
-4.08396e-06
-4.08463e-06
-4.08533e-06
-4.08607e-06
-4.08684e-06
-4.08765e-06
-4.08851e-06
-4.0894e-06
-4.09034e-06
-4.09133e-06
-4.09237e-06
-4.09345e-06
-4.09459e-06
-4.09578e-06
-4.09703e-06
-4.09834e-06
-4.09972e-06
-4.10115e-06
-4.10266e-06
-4.10423e-06
-4.10588e-06
-4.1076e-06
-4.1094e-06
-4.11129e-06
-4.11326e-06
-4.11531e-06
-4.11746e-06
-4.11971e-06
-4.12205e-06
-4.1245e-06
-4.12705e-06
-4.12971e-06
-4.13249e-06
-4.13538e-06
-4.1384e-06
-4.14155e-06
-4.14482e-06
-4.14824e-06
-4.15179e-06
-4.15549e-06
-4.15934e-06
-4.16335e-06
-4.16752e-06
-4.17185e-06
-4.17636e-06
-4.18104e-06
-4.18591e-06
-4.19097e-06
-4.19622e-06
-4.20167e-06
-4.20733e-06
-4.2132e-06
-4.2193e-06
-4.22562e-06
-4.23217e-06
-4.23896e-06
-4.24601e-06
-4.2533e-06
-4.26086e-06
-4.26869e-06
-4.27679e-06
-4.28518e-06
-4.29386e-06
-4.30284e-06
-4.31213e-06
-4.32173e-06
-4.33166e-06
-4.34192e-06
-4.35253e-06
-4.36348e-06
-4.37479e-06
-4.38647e-06
-4.39853e-06
-4.41097e-06
-4.42381e-06
-4.43705e-06
-4.45071e-06
-4.46479e-06
-4.4793e-06
-4.49426e-06
-4.50967e-06
-4.52554e-06
-4.54188e-06
-4.55871e-06
-4.57603e-06
-4.59385e-06
-4.61219e-06
-4.63106e-06
-4.65046e-06
-4.6704e-06
-4.6909e-06
-4.71198e-06
-4.73363e-06
-4.75587e-06
-4.77871e-06
-4.80216e-06
-4.82624e-06
-4.85096e-06
-4.87632e-06
-4.90234e-06
-4.92903e-06
-4.9564e-06
-4.98447e-06
-5.01324e-06
-5.04273e-06
-5.07295e-06
-5.10391e-06
-5.13563e-06
-5.16811e-06
-5.20136e-06
-5.23542e-06
-5.27027e-06
-5.30594e-06
-5.34244e-06
-5.37978e-06
-5.41797e-06
-5.45703e-06
-5.49697e-06
-5.5378e-06
-5.57954e-06
-5.62219e-06
-5.66578e-06
-5.71031e-06
-5.7558e-06
-5.80227e-06
-5.84972e-06
-5.89817e-06
-5.94763e-06
-5.99812e-06
-6.04965e-06
-6.10223e-06
-6.15589e-06
-6.21063e-06
-6.26647e-06
-6.32342e-06
-6.3815e-06
-6.44072e-06
-6.50111e-06
-6.56267e-06
-6.62542e-06
-6.68938e-06
-6.75456e-06
-6.82097e-06
-6.88865e-06
-6.9576e-06
-7.02783e-06
-7.09938e-06
-7.17225e-06
-7.24646e-06
-7.32204e-06
-7.399e-06
-7.47736e-06
-7.55715e-06
-7.63837e-06
-7.72106e-06
-7.80524e-06
-7.89092e-06
-7.97812e-06
-8.06688e-06
-8.15722e-06
-8.24916e-06
-8.34272e-06
-8.43793e-06
-8.53482e-06
-8.63342e-06
-8.73374e-06
-8.83583e-06
-8.93972e-06
-9.04543e-06
-9.15299e-06
-9.26245e-06
-9.37384e-06
-9.48719e-06
-9.60257e-06
-9.72e-06
-9.83955e-06
-9.96127e-06
-1.00852e-05
-1.02115e-05
-1.0339e-05
-1.04689e-05
-1.06013e-05
-1.07361e-05
-1.08735e-05
-1.10134e-05
-1.11559e-05
-1.1301e-05
-1.14487e-05
-1.15992e-05
-1.17523e-05
-1.19082e-05
-1.20669e-05
-1.22284e-05
-1.23928e-05
-1.256e-05
-1.27302e-05
-1.29032e-05
-1.30791e-05
-1.32579e-05
-1.34395e-05
-1.36239e-05
-1.3811e-05
-1.40007e-05
-1.41929e-05
-1.43873e-05
-1.45837e-05
-1.47819e-05
-1.49814e-05
-1.51819e-05
-1.53828e-05
-1.55834e-05
-1.5783e-05
-1.59808e-05
-1.61755e-05
-1.6366e-05
-1.65508e-05
-1.67282e-05
-1.68961e-05
-1.70523e-05
-1.71942e-05
-1.73187e-05
-1.74225e-05
-1.75018e-05
-1.75527e-05
)
;

boundaryField
{
    fixedWall
    {
        type            calculated;
        value           uniform 0;
    }
    outlet
    {
        type            calculated;
        value           uniform -1.75706e-05;
    }
    defaultFaces
    {
        type            empty;
    }
}


// ************************************************************************* //
