/*--------------------------------*- C++ -*----------------------------------*\
| =========                 |                                                 |
| \\      /  F ield         | OpenFOAM: The Open Source CFD Toolbox           |
|  \\    /   O peration     | Version:  2406                                  |
|   \\  /    A nd           | Website:  www.openfoam.com                      |
|    \\/     M anipulation  |                                                 |
\*---------------------------------------------------------------------------*/
FoamFile
{
    version     2.0;
    format      ascii;
    arch        "LSB;label=32;scalar=64";
    class       volScalarField;
    location    "14.9";
    object      T;
}
// * * * * * * * * * * * * * * * * * * * * * * * * * * * * * * * * * * * * * //

dimensions      [0 0 0 1 0 0 0];

internalField   nonuniform List<scalar> 
1000
(
303.46
323.005
341.318
358.57
374.894
390.397
405.166
419.273
432.779
445.736
458.189
470.175
481.729
492.881
503.656
514.078
524.168
533.945
543.427
552.627
561.562
570.243
578.683
586.891
594.879
602.656
610.23
617.608
624.799
631.81
638.647
645.315
651.821
658.171
664.368
670.419
676.327
682.096
687.732
693.237
698.616
703.871
709.006
714.025
718.931
723.725
728.412
732.993
737.472
741.851
746.132
750.318
754.41
758.412
762.324
766.149
769.889
773.547
777.122
780.618
784.037
787.379
790.646
793.841
796.964
800.017
803.001
805.918
808.77
811.557
814.281
816.943
819.545
822.087
824.572
826.999
829.371
831.687
833.951
836.162
838.321
840.43
842.489
844.501
846.464
848.382
850.254
852.081
853.864
855.605
857.304
858.961
860.579
862.157
863.696
865.198
866.662
868.09
869.483
870.841
872.165
873.456
874.714
875.94
877.134
878.298
879.433
880.537
881.614
882.662
883.683
884.676
885.644
886.586
887.503
888.395
889.264
890.109
890.931
891.73
892.508
893.264
894
894.715
895.41
896.085
896.742
897.38
898
898.602
899.187
899.755
900.307
900.843
901.363
901.868
902.358
902.833
903.294
903.742
904.176
904.597
905.005
905.401
905.785
906.157
906.517
906.867
907.205
907.533
907.85
908.158
908.456
908.744
909.023
909.293
909.555
909.808
910.052
910.289
910.518
910.739
910.953
911.16
911.36
911.553
911.74
911.92
912.094
912.262
912.425
912.582
912.733
912.879
913.02
913.156
913.287
913.414
913.536
913.654
913.767
913.876
913.982
914.083
914.181
914.275
914.366
914.453
914.538
914.619
914.696
914.771
914.844
914.913
914.98
915.044
915.106
915.165
915.222
915.277
915.329
915.38
915.428
915.475
915.52
915.563
915.604
915.644
915.682
915.718
915.753
915.786
915.819
915.849
915.879
915.907
915.934
915.96
915.985
916.009
916.032
916.054
916.075
916.094
916.114
916.132
916.149
916.166
916.182
916.197
916.212
916.226
916.239
916.252
916.264
916.275
916.286
916.297
916.307
916.316
916.325
916.334
916.342
916.35
916.358
916.365
916.372
916.378
916.384
916.39
916.396
916.401
916.406
916.411
916.415
916.42
916.424
916.428
916.432
916.435
916.438
916.442
916.445
916.447
916.45
916.453
916.455
916.457
916.46
916.462
916.464
916.465
916.467
916.469
916.47
916.472
916.473
916.475
916.476
916.477
916.478
916.479
916.48
916.481
916.482
916.483
916.484
916.485
916.485
916.486
916.487
916.487
916.488
916.488
916.489
916.489
916.49
916.49
916.491
916.491
916.492
916.492
916.492
916.493
916.493
916.493
916.494
916.494
916.494
916.494
916.495
916.495
916.495
916.495
916.496
916.496
916.496
916.496
916.496
916.497
916.497
916.497
916.497
916.497
916.497
916.498
916.498
916.498
916.498
916.498
916.499
916.499
916.499
916.499
916.499
916.499
916.5
916.5
916.5
916.5
916.5
916.5
916.5
916.501
916.501
916.501
916.501
916.501
916.501
916.502
916.502
916.502
916.502
916.502
916.502
916.503
916.503
916.503
916.503
916.503
916.503
916.504
916.504
916.504
916.504
916.504
916.504
916.504
916.505
916.505
916.505
916.505
916.505
916.505
916.506
916.506
916.506
916.506
916.506
916.506
916.506
916.507
916.507
916.507
916.507
916.507
916.507
916.507
916.508
916.508
916.508
916.508
916.508
916.508
916.508
916.508
916.509
916.509
916.509
916.509
916.509
916.509
916.509
916.509
916.51
916.51
916.51
916.51
916.51
916.51
916.51
916.51
916.51
916.511
916.511
916.511
916.511
916.511
916.511
916.511
916.511
916.511
916.511
916.511
916.512
916.512
916.512
916.512
916.512
916.512
916.512
916.512
916.512
916.512
916.512
916.512
916.512
916.513
916.513
916.513
916.513
916.513
916.513
916.513
916.513
916.513
916.513
916.513
916.513
916.513
916.513
916.513
916.513
916.513
916.514
916.514
916.514
916.514
916.514
916.514
916.514
916.514
916.514
916.514
916.514
916.514
916.514
916.514
916.514
916.514
916.514
916.514
916.514
916.514
916.514
916.514
916.515
916.515
916.515
916.515
916.515
916.515
916.515
916.515
916.515
916.515
916.515
916.515
916.515
916.515
916.515
916.515
916.515
916.515
916.515
916.515
916.515
916.515
916.515
916.515
916.515
916.515
916.515
916.515
916.515
916.515
916.515
916.515
916.516
916.516
916.516
916.516
916.516
916.516
916.516
916.516
916.516
916.516
916.516
916.516
916.516
916.516
916.516
916.516
916.516
916.516
916.516
916.516
916.516
916.516
916.516
916.516
916.516
916.516
916.516
916.516
916.516
916.516
916.516
916.516
916.516
916.516
916.516
916.516
916.516
916.516
916.517
916.517
916.517
916.517
916.517
916.517
916.517
916.517
916.517
916.517
916.517
916.517
916.517
916.517
916.517
916.517
916.517
916.517
916.517
916.517
916.517
916.517
916.517
916.517
916.517
916.517
916.517
916.517
916.517
916.517
916.517
916.517
916.517
916.517
916.517
916.517
916.517
916.517
916.517
916.517
916.518
916.518
916.518
916.518
916.518
916.518
916.518
916.518
916.518
916.518
916.518
916.518
916.518
916.518
916.518
916.518
916.518
916.518
916.518
916.518
916.518
916.518
916.518
916.518
916.518
916.518
916.518
916.518
916.518
916.518
916.518
916.518
916.518
916.518
916.518
916.518
916.518
916.518
916.518
916.518
916.518
916.518
916.518
916.518
916.518
916.518
916.518
916.518
916.518
916.518
916.518
916.518
916.518
916.518
916.518
916.518
916.518
916.518
916.518
916.518
916.518
916.518
916.518
916.518
916.518
916.518
916.518
916.518
916.518
916.518
916.518
916.518
916.518
916.518
916.518
916.518
916.518
916.518
916.518
916.518
916.518
916.518
916.518
916.518
916.518
916.518
916.518
916.518
916.518
916.518
916.518
916.518
916.518
916.518
916.518
916.518
916.518
916.518
916.518
916.518
916.518
916.518
916.518
916.518
916.518
916.518
916.518
916.518
916.518
916.518
916.518
916.518
916.517
916.517
916.517
916.517
916.517
916.517
916.517
916.517
916.516
916.516
916.516
916.516
916.515
916.515
916.515
916.515
916.514
916.514
916.513
916.513
916.513
916.512
916.512
916.511
916.51
916.51
916.509
916.508
916.507
916.507
916.506
916.505
916.504
916.503
916.501
916.5
916.499
916.497
916.496
916.494
916.493
916.491
916.489
916.487
916.484
916.482
916.48
916.477
916.474
916.471
916.468
916.465
916.461
916.457
916.453
916.449
916.444
916.439
916.434
916.429
916.423
916.417
916.411
916.404
916.396
916.389
916.381
916.372
916.363
916.354
916.344
916.333
916.322
916.31
916.297
916.284
916.27
916.255
916.24
916.224
916.206
916.188
916.169
916.149
916.128
916.106
916.082
916.057
916.031
916.004
915.976
915.945
915.914
915.881
915.846
915.809
915.771
915.73
915.688
915.644
915.597
915.548
915.497
915.444
915.388
915.33
915.268
915.204
915.137
915.067
914.994
914.917
914.837
914.753
914.666
914.575
914.48
914.381
914.277
914.169
914.057
913.939
913.817
913.69
913.557
913.419
913.276
913.126
912.971
912.809
912.641
912.467
912.285
912.097
911.901
911.697
911.487
911.268
911.041
910.805
910.561
910.308
910.045
909.774
909.492
909.201
908.899
908.587
908.264
907.93
907.584
907.227
906.858
906.476
906.082
905.675
905.255
904.821
904.374
903.912
903.435
902.944
902.437
901.915
901.377
900.823
900.252
899.664
899.058
898.435
897.793
897.133
896.455
895.756
895.038
894.3
893.542
892.762
891.961
891.139
890.294
889.426
888.536
887.621
886.683
885.72
884.733
883.72
882.681
881.615
880.523
879.403
878.255
877.079
875.874
874.639
873.374
872.079
870.752
869.393
868.002
866.577
865.119
863.626
862.098
860.534
858.933
857.296
855.62
853.905
852.15
850.355
848.519
846.641
844.719
842.753
840.742
838.685
836.581
834.429
832.228
829.976
827.672
825.316
822.905
820.439
817.917
815.336
812.695
809.993
807.229
804.4
801.504
798.541
795.509
792.405
789.227
785.974
782.643
779.232
775.739
772.162
768.498
764.745
760.899
756.959
752.922
748.784
744.543
740.196
735.739
731.169
726.483
721.677
716.748
711.692
706.524
701.248
695.789
690.188
684.441
678.543
672.49
666.278
659.902
653.358
646.642
639.749
632.675
625.415
617.967
610.325
602.486
594.446
586.203
577.753
569.093
560.223
551.14
541.844
532.335
522.614
512.683
502.544
492.202
481.663
470.934
460.024
448.942
437.703
426.32
414.81
403.193
391.491
379.729
367.934
356.138
344.375
332.683
321.103
309.681
298.465
)
;

boundaryField
{
    fixedWall
    {
        type            fixedValue;
        value           uniform 293;
    }
    outlet
    {
        type            inletOutlet;
        inletValue      uniform 293;
        value           uniform 293;
    }
    defaultFaces
    {
        type            empty;
    }
}


// ************************************************************************* //
