/*--------------------------------*- C++ -*----------------------------------*\
| =========                 |                                                 |
| \\      /  F ield         | OpenFOAM: The Open Source CFD Toolbox           |
|  \\    /   O peration     | Version:  2406                                  |
|   \\  /    A nd           | Website:  www.openfoam.com                      |
|    \\/     M anipulation  |                                                 |
\*---------------------------------------------------------------------------*/
FoamFile
{
    version     2.0;
    format      ascii;
    arch        "LSB;label=32;scalar=64";
    class       volScalarField;
    location    "3.6";
    object      H2O;
}
// * * * * * * * * * * * * * * * * * * * * * * * * * * * * * * * * * * * * * //

dimensions      [0 0 0 0 0 0 0];

internalField   nonuniform List<scalar> 
1000
(
0.0580663
0.0580663
0.0580663
0.0580663
0.0580663
0.0580663
0.0580663
0.0580663
0.0580663
0.0580663
0.0580664
0.0580664
0.0580664
0.0580664
0.0580664
0.0580664
0.0580664
0.0580664
0.0580664
0.0580665
0.0580665
0.0580665
0.0580665
0.0580665
0.0580665
0.0580665
0.0580666
0.0580666
0.0580666
0.0580666
0.0580666
0.0580666
0.0580666
0.0580666
0.0580667
0.0580667
0.0580667
0.0580667
0.0580667
0.0580667
0.0580667
0.0580667
0.0580667
0.0580667
0.0580667
0.0580668
0.0580668
0.0580668
0.0580668
0.0580668
0.0580668
0.0580668
0.0580668
0.0580668
0.0580668
0.0580668
0.0580668
0.0580668
0.0580668
0.0580668
0.0580668
0.0580668
0.0580668
0.0580668
0.0580668
0.0580668
0.0580668
0.0580668
0.0580668
0.0580668
0.0580668
0.0580668
0.0580668
0.0580668
0.0580668
0.0580668
0.0580668
0.0580668
0.0580668
0.0580668
0.0580668
0.0580668
0.0580668
0.0580668
0.0580668
0.0580668
0.0580668
0.0580668
0.0580668
0.0580668
0.0580668
0.0580668
0.0580668
0.0580668
0.0580668
0.0580668
0.0580668
0.0580668
0.0580668
0.0580668
0.0580668
0.0580668
0.0580668
0.0580668
0.0580668
0.0580668
0.0580668
0.0580668
0.0580668
0.0580668
0.0580668
0.0580668
0.0580668
0.0580668
0.0580668
0.0580668
0.0580668
0.0580668
0.0580668
0.0580668
0.0580668
0.0580668
0.0580668
0.0580668
0.0580668
0.0580668
0.0580668
0.0580668
0.0580668
0.0580668
0.0580668
0.0580668
0.0580668
0.0580668
0.0580668
0.0580668
0.0580668
0.0580668
0.0580668
0.0580668
0.0580668
0.0580668
0.0580668
0.0580668
0.0580668
0.0580668
0.0580668
0.0580668
0.0580668
0.0580668
0.0580668
0.0580668
0.0580668
0.0580668
0.0580668
0.0580668
0.0580668
0.0580668
0.0580668
0.0580668
0.0580668
0.0580668
0.0580668
0.0580668
0.0580668
0.0580668
0.0580668
0.0580668
0.0580668
0.0580668
0.0580668
0.0580668
0.0580668
0.0580668
0.0580668
0.0580668
0.0580668
0.0580668
0.0580668
0.0580668
0.0580668
0.0580668
0.0580668
0.0580668
0.0580668
0.0580667
0.0580667
0.0580667
0.0580667
0.0580667
0.0580667
0.0580667
0.0580667
0.0580667
0.0580667
0.0580667
0.0580667
0.0580667
0.0580667
0.0580667
0.0580667
0.0580667
0.0580667
0.0580667
0.0580667
0.0580667
0.0580667
0.0580667
0.0580667
0.0580667
0.0580667
0.0580667
0.0580667
0.0580667
0.0580667
0.0580667
0.0580667
0.0580667
0.0580667
0.0580667
0.0580667
0.0580667
0.0580667
0.0580667
0.0580667
0.0580667
0.0580667
0.0580667
0.0580667
0.0580667
0.0580667
0.0580667
0.0580667
0.0580667
0.0580667
0.0580667
0.0580667
0.0580667
0.0580667
0.0580667
0.0580667
0.0580667
0.0580667
0.0580667
0.0580667
0.0580667
0.0580667
0.0580667
0.0580667
0.0580667
0.0580667
0.0580667
0.0580667
0.0580667
0.0580667
0.0580666
0.0580666
0.0580666
0.0580666
0.0580666
0.0580666
0.0580666
0.0580666
0.0580666
0.0580666
0.0580666
0.0580666
0.0580666
0.0580666
0.0580666
0.0580666
0.0580666
0.0580666
0.0580666
0.0580666
0.0580666
0.0580666
0.0580666
0.0580666
0.0580666
0.0580666
0.0580666
0.0580666
0.0580666
0.0580666
0.0580666
0.0580666
0.0580666
0.0580666
0.0580666
0.0580666
0.0580666
0.0580666
0.0580666
0.0580666
0.0580666
0.0580666
0.0580666
0.0580666
0.0580666
0.0580666
0.0580666
0.0580666
0.0580665
0.0580665
0.0580665
0.0580665
0.0580665
0.0580665
0.0580665
0.0580665
0.0580665
0.0580665
0.0580665
0.0580665
0.0580665
0.0580665
0.0580665
0.0580665
0.0580665
0.0580665
0.0580665
0.0580665
0.0580665
0.0580665
0.0580665
0.0580665
0.0580665
0.0580665
0.0580665
0.0580665
0.0580665
0.0580665
0.0580665
0.0580665
0.0580665
0.0580665
0.0580665
0.0580664
0.0580664
0.0580664
0.0580664
0.0580664
0.0580664
0.0580664
0.0580664
0.0580664
0.0580664
0.0580664
0.0580664
0.0580664
0.0580664
0.0580664
0.0580664
0.0580664
0.0580664
0.0580664
0.0580664
0.0580664
0.0580664
0.0580664
0.0580664
0.0580664
0.0580664
0.0580664
0.0580663
0.0580663
0.0580663
0.0580663
0.0580663
0.0580663
0.0580663
0.0580663
0.0580663
0.0580663
0.0580663
0.0580663
0.0580663
0.0580663
0.0580663
0.0580663
0.0580663
0.0580663
0.0580663
0.0580663
0.0580663
0.0580662
0.0580662
0.0580662
0.0580662
0.0580662
0.0580662
0.0580662
0.0580662
0.0580662
0.0580662
0.0580662
0.0580662
0.0580662
0.0580662
0.0580662
0.0580662
0.0580662
0.0580661
0.0580661
0.0580661
0.0580661
0.0580661
0.0580661
0.0580661
0.0580661
0.0580661
0.0580661
0.0580661
0.0580661
0.0580661
0.0580661
0.058066
0.058066
0.058066
0.058066
0.058066
0.058066
0.058066
0.058066
0.058066
0.058066
0.058066
0.058066
0.0580659
0.0580659
0.0580659
0.0580659
0.0580659
0.0580659
0.0580659
0.0580659
0.0580659
0.0580659
0.0580658
0.0580658
0.0580658
0.0580658
0.0580658
0.0580658
0.0580658
0.0580658
0.0580658
0.0580657
0.0580657
0.0580657
0.0580657
0.0580657
0.0580657
0.0580657
0.0580656
0.0580656
0.0580656
0.0580656
0.0580656
0.0580656
0.0580656
0.0580655
0.0580655
0.0580655
0.0580655
0.0580655
0.0580655
0.0580654
0.0580654
0.0580654
0.0580654
0.0580654
0.0580653
0.0580653
0.0580653
0.0580653
0.0580653
0.0580652
0.0580652
0.0580652
0.0580652
0.0580651
0.0580651
0.0580651
0.0580651
0.058065
0.058065
0.058065
0.0580649
0.0580649
0.0580649
0.0580649
0.0580648
0.0580648
0.0580648
0.0580647
0.0580647
0.0580646
0.0580646
0.0580646
0.0580645
0.0580645
0.0580644
0.0580644
0.0580643
0.0580643
0.0580642
0.0580642
0.0580641
0.0580641
0.058064
0.058064
0.0580639
0.0580638
0.0580638
0.0580637
0.0580636
0.0580635
0.0580635
0.0580634
0.0580633
0.0580632
0.0580631
0.058063
0.0580629
0.0580628
0.0580627
0.0580626
0.0580624
0.0580623
0.0580622
0.058062
0.0580618
0.0580617
0.0580615
0.0580613
0.0580611
0.0580609
0.0580606
0.0580604
0.0580601
0.0580598
0.0580595
0.0580591
0.0580587
0.0580583
0.0580579
0.0580574
0.0580568
0.0580562
0.0580554
0.0580546
0.0580537
0.0580527
0.0580515
0.0580501
0.0580484
0.0580464
0.0580439
0.0580409
0.058037
0.0580319
0.058025
0.0580154
0.0580009
0.0579771
0.0579331
0.0578374
0.0575862
0.0568034
0.054023
0.04192
0.0209483
0.0103501
0.00511805
0.00253475
0.00125707
0.00062413
0.000310157
0.000154232
7.67286e-05
3.81817e-05
1.90028e-05
9.4584e-06
4.70806e-06
2.34363e-06
1.16671e-06
5.80871e-07
2.89236e-07
1.44063e-07
7.17821e-08
3.58004e-08
1.78931e-08
8.9756e-09
4.50496e-09
2.33534e-09
1.22469e-09
8.37002e-10
5.32939e-10
3.25674e-10
2.21969e-10
1.72596e-10
1.44614e-10
1.34232e-10
1.27975e-10
1.23595e-10
1.22182e-10
1.20699e-10
1.2001e-10
1.19619e-10
1.19443e-10
1.19278e-10
1.19171e-10
1.19134e-10
1.19111e-10
1.19096e-10
1.19089e-10
1.19082e-10
1.19079e-10
1.19078e-10
1.19077e-10
1.19077e-10
1.19077e-10
1.19077e-10
1.19078e-10
1.19078e-10
1.19078e-10
1.19079e-10
1.19079e-10
1.19079e-10
1.1908e-10
1.1908e-10
1.19081e-10
1.19081e-10
1.19082e-10
1.19082e-10
1.19082e-10
1.19083e-10
1.19083e-10
1.19084e-10
1.19084e-10
1.19084e-10
1.19085e-10
1.19085e-10
1.19086e-10
1.19086e-10
1.19086e-10
1.19087e-10
1.19087e-10
1.19087e-10
1.19088e-10
1.19088e-10
1.19089e-10
1.19089e-10
1.1909e-10
1.1909e-10
1.1909e-10
1.19091e-10
1.19091e-10
1.19092e-10
1.19092e-10
1.19092e-10
1.19093e-10
1.19093e-10
1.19093e-10
1.19094e-10
1.19094e-10
1.19095e-10
1.19095e-10
1.19095e-10
1.19096e-10
1.19096e-10
1.19097e-10
1.19097e-10
1.19097e-10
1.19098e-10
1.19098e-10
1.19099e-10
1.19099e-10
1.191e-10
1.191e-10
1.191e-10
1.19101e-10
1.19101e-10
1.19102e-10
1.19102e-10
1.19103e-10
1.19103e-10
1.19104e-10
1.19104e-10
1.19104e-10
1.19105e-10
1.19105e-10
1.19105e-10
1.19106e-10
1.19106e-10
1.19107e-10
1.19107e-10
1.19107e-10
1.19108e-10
1.19108e-10
1.19109e-10
1.19109e-10
1.19109e-10
1.1911e-10
1.1911e-10
1.1911e-10
1.19111e-10
1.19111e-10
1.19112e-10
1.19112e-10
1.19113e-10
1.19113e-10
1.19113e-10
1.19114e-10
1.19114e-10
1.19115e-10
1.19115e-10
1.19115e-10
1.19116e-10
1.19116e-10
1.19117e-10
1.19117e-10
1.19117e-10
1.19118e-10
1.19118e-10
1.19119e-10
1.19119e-10
1.19119e-10
1.1912e-10
1.1912e-10
1.19121e-10
1.19121e-10
1.19122e-10
1.19122e-10
1.19122e-10
1.19123e-10
1.19123e-10
1.19124e-10
1.19124e-10
1.19124e-10
1.19125e-10
1.19125e-10
1.19126e-10
1.19126e-10
1.19127e-10
1.19127e-10
1.19128e-10
1.19128e-10
1.19129e-10
1.19129e-10
1.1913e-10
1.1913e-10
1.1913e-10
1.19131e-10
1.19131e-10
1.19131e-10
1.19132e-10
1.19132e-10
1.19133e-10
1.19133e-10
1.19134e-10
1.19134e-10
1.19134e-10
1.19135e-10
1.19135e-10
1.19136e-10
1.19136e-10
1.19136e-10
1.19137e-10
1.19137e-10
1.19138e-10
1.19138e-10
1.19139e-10
1.19139e-10
1.19139e-10
1.1914e-10
1.1914e-10
1.1914e-10
1.19141e-10
1.19141e-10
1.19142e-10
1.19142e-10
1.19143e-10
1.19143e-10
1.19143e-10
1.19144e-10
1.19144e-10
1.19145e-10
1.19145e-10
1.19146e-10
1.19146e-10
1.19146e-10
1.19147e-10
1.19147e-10
1.19148e-10
1.19148e-10
1.19148e-10
1.19149e-10
1.1915e-10
1.1915e-10
1.1915e-10
1.19151e-10
1.19151e-10
1.19152e-10
1.19152e-10
1.19152e-10
1.19153e-10
1.19153e-10
1.19154e-10
1.19154e-10
1.19154e-10
1.19155e-10
1.19155e-10
1.19156e-10
1.19156e-10
1.19157e-10
1.19157e-10
1.19157e-10
1.19158e-10
1.19158e-10
1.19159e-10
1.19159e-10
1.1916e-10
1.1916e-10
1.1916e-10
1.19161e-10
1.19161e-10
1.19162e-10
1.19162e-10
1.19163e-10
1.19163e-10
1.19163e-10
1.19164e-10
1.19164e-10
1.19165e-10
1.19165e-10
1.19166e-10
1.19166e-10
1.19166e-10
1.19167e-10
1.19167e-10
1.19168e-10
1.19168e-10
1.19169e-10
1.19169e-10
1.19169e-10
1.1917e-10
1.1917e-10
1.19171e-10
1.19171e-10
1.19171e-10
1.19172e-10
1.19172e-10
1.19173e-10
1.19173e-10
1.19174e-10
1.19174e-10
1.19174e-10
1.19175e-10
1.19175e-10
1.19176e-10
1.19176e-10
1.19176e-10
1.19177e-10
1.19178e-10
1.19178e-10
1.19178e-10
1.19179e-10
1.19179e-10
1.19179e-10
1.1918e-10
1.1918e-10
1.19181e-10
1.19181e-10
1.19181e-10
1.19182e-10
1.19182e-10
1.19183e-10
1.19183e-10
1.19184e-10
1.19184e-10
1.19185e-10
1.19185e-10
1.19186e-10
1.19186e-10
1.19187e-10
1.19187e-10
1.19187e-10
1.19188e-10
1.19188e-10
1.19189e-10
1.19189e-10
1.1919e-10
1.1919e-10
1.1919e-10
1.19191e-10
1.19191e-10
1.19192e-10
1.19192e-10
1.19193e-10
1.19193e-10
1.19193e-10
1.19194e-10
1.19194e-10
1.19194e-10
1.19195e-10
1.19195e-10
1.19196e-10
1.19196e-10
1.19197e-10
1.19197e-10
1.19198e-10
1.19198e-10
1.19198e-10
1.19199e-10
1.19199e-10
1.192e-10
1.192e-10
1.19201e-10
1.19201e-10
1.19202e-10
1.19202e-10
1.19202e-10
1.19203e-10
1.19203e-10
1.19204e-10
1.19204e-10
1.19205e-10
1.19205e-10
1.19206e-10
1.19206e-10
1.19207e-10
1.19207e-10
1.19207e-10
1.19208e-10
1.19208e-10
1.19208e-10
1.19209e-10
1.19209e-10
1.1921e-10
1.1921e-10
1.19211e-10
1.19211e-10
1.19211e-10
1.19212e-10
1.19212e-10
1.19213e-10
1.19213e-10
1.19214e-10
1.19214e-10
1.19214e-10
1.19215e-10
1.19215e-10
1.19216e-10
1.19216e-10
1.19217e-10
1.19217e-10
1.19217e-10
1.19218e-10
1.19218e-10
1.19219e-10
1.19219e-10
1.19219e-10
1.1922e-10
1.19221e-10
1.19221e-10
1.19221e-10
1.19222e-10
1.19222e-10
1.19223e-10
1.19223e-10
1.19224e-10
1.19224e-10
1.19224e-10
1.19225e-10
1.19225e-10
1.19226e-10
1.19226e-10
1.19227e-10
1.19227e-10
1.19227e-10
1.19228e-10
1.19228e-10
1.19229e-10
1.19229e-10
1.1923e-10
1.1923e-10
1.19231e-10
1.19231e-10
1.19231e-10
1.19232e-10
1.19232e-10
1.19233e-10
1.19233e-10
1.19233e-10
1.19234e-10
1.19234e-10
1.19235e-10
)
;

boundaryField
{
    fixedWall
    {
        type            zeroGradient;
    }
    outlet
    {
        type            inletOutlet;
        inletValue      uniform 0;
        value           uniform 1.19235e-10;
    }
    defaultFaces
    {
        type            empty;
    }
}


// ************************************************************************* //
