/*--------------------------------*- C++ -*----------------------------------*\
| =========                 |                                                 |
| \\      /  F ield         | OpenFOAM: The Open Source CFD Toolbox           |
|  \\    /   O peration     | Version:  2406                                  |
|   \\  /    A nd           | Website:  www.openfoam.com                      |
|    \\/     M anipulation  |                                                 |
\*---------------------------------------------------------------------------*/
FoamFile
{
    version     2.0;
    format      ascii;
    arch        "LSB;label=32;scalar=64";
    class       volScalarField;
    location    "3.6";
    object      T;
}
// * * * * * * * * * * * * * * * * * * * * * * * * * * * * * * * * * * * * * //

dimensions      [0 0 0 1 0 0 0];

internalField   nonuniform List<scalar> 
1000
(
315.342
354.291
388.776
419.816
448.087
474.061
498.088
520.433
541.304
560.869
579.262
596.596
612.965
628.451
643.121
657.036
670.248
682.803
694.742
706.103
716.918
727.217
737.028
746.377
755.285
763.775
771.867
779.578
786.927
793.93
800.602
806.957
813.01
818.772
824.257
829.477
834.442
839.164
843.652
847.917
851.967
855.813
859.463
862.924
866.206
869.316
872.261
875.049
877.687
880.181
882.538
884.764
886.865
888.847
890.715
892.476
894.133
895.692
897.158
898.535
899.828
901.041
902.178
903.244
904.241
905.174
906.047
906.861
907.621
908.33
908.99
909.604
910.176
910.707
911.2
911.658
912.082
912.474
912.834
913.168
913.478
913.764
914.027
914.269
914.492
914.697
914.884
915.056
915.213
915.357
915.488
915.607
915.716
915.815
915.905
915.986
916.06
916.126
916.186
916.24
916.288
916.332
916.371
916.406
916.437
916.464
916.488
916.51
916.529
916.546
916.56
916.573
916.584
916.593
916.601
916.608
916.614
916.619
916.623
916.627
916.629
916.631
916.633
916.634
916.635
916.636
916.636
916.636
916.636
916.635
916.635
916.634
916.634
916.633
916.632
916.632
916.631
916.63
916.629
916.628
916.628
916.627
916.626
916.625
916.625
916.624
916.623
916.623
916.622
916.622
916.621
916.621
916.62
916.62
916.619
916.619
916.618
916.618
916.617
916.617
916.617
916.616
916.616
916.615
916.615
916.614
916.614
916.614
916.613
916.613
916.612
916.611
916.611
916.61
916.61
916.609
916.609
916.608
916.607
916.606
916.606
916.605
916.604
916.603
916.602
916.602
916.601
916.6
916.599
916.598
916.597
916.596
916.594
916.593
916.592
916.591
916.59
916.589
916.587
916.586
916.585
916.583
916.582
916.581
916.579
916.578
916.577
916.575
916.574
916.572
916.571
916.569
916.568
916.566
916.565
916.563
916.562
916.56
916.558
916.557
916.555
916.554
916.552
916.551
916.549
916.547
916.546
916.544
916.543
916.541
916.54
916.538
916.536
916.535
916.533
916.532
916.53
916.529
916.527
916.526
916.524
916.523
916.521
916.52
916.518
916.517
916.515
916.514
916.513
916.511
916.51
916.508
916.507
916.506
916.504
916.503
916.502
916.501
916.499
916.498
916.497
916.496
916.495
916.494
916.493
916.492
916.491
916.49
916.489
916.488
916.487
916.486
916.485
916.485
916.484
916.483
916.483
916.482
916.481
916.481
916.48
916.48
916.479
916.479
916.479
916.478
916.478
916.478
916.478
916.477
916.477
916.477
916.477
916.477
916.477
916.477
916.477
916.477
916.477
916.477
916.477
916.477
916.477
916.477
916.478
916.478
916.478
916.478
916.478
916.479
916.479
916.479
916.479
916.48
916.48
916.48
916.48
916.481
916.481
916.481
916.482
916.482
916.482
916.482
916.483
916.483
916.483
916.484
916.484
916.484
916.485
916.485
916.486
916.486
916.486
916.487
916.487
916.488
916.488
916.488
916.489
916.489
916.49
916.49
916.491
916.491
916.492
916.493
916.493
916.494
916.494
916.495
916.496
916.497
916.497
916.498
916.499
916.5
916.501
916.502
916.503
916.504
916.505
916.505
916.507
916.508
916.509
916.51
916.511
916.512
916.513
916.514
916.515
916.516
916.517
916.519
916.52
916.521
916.522
916.523
916.524
916.525
916.527
916.528
916.529
916.53
916.531
916.532
916.533
916.534
916.535
916.536
916.537
916.537
916.538
916.539
916.54
916.541
916.541
916.542
916.542
916.543
916.543
916.544
916.544
916.544
916.545
916.545
916.545
916.545
916.545
916.544
916.544
916.543
916.543
916.542
916.541
916.54
916.539
916.538
916.537
916.535
916.534
916.532
916.53
916.528
916.526
916.523
916.521
916.518
916.516
916.513
916.511
916.508
916.505
916.502
916.499
916.497
916.494
916.492
916.489
916.487
916.485
916.483
916.482
916.48
916.479
916.478
916.478
916.477
916.477
916.477
916.478
916.479
916.48
916.481
916.482
916.484
916.486
916.488
916.49
916.493
916.495
916.498
916.5
916.503
916.506
916.509
916.511
916.514
916.517
916.52
916.522
916.525
916.527
916.53
916.532
916.534
916.536
916.538
916.539
916.541
916.542
916.543
916.543
916.544
916.543
916.543
916.542
916.541
916.54
916.538
916.536
916.533
916.53
916.527
916.523
916.519
916.515
916.511
916.507
916.503
916.499
916.495
916.491
916.488
916.484
916.482
916.479
916.478
916.476
916.476
916.476
916.477
916.478
916.481
916.484
916.487
916.491
916.495
916.5
916.505
916.509
916.514
916.518
916.522
916.525
916.527
916.528
916.528
916.526
916.523
916.519
916.512
916.504
916.495
916.484
916.473
916.46
916.447
916.434
916.422
916.411
916.402
916.395
916.39
916.388
916.389
916.391
916.395
916.401
916.407
916.414
916.42
916.427
916.432
916.437
916.44
916.439
916.433
916.417
916.385
916.332
916.252
916.144
916.01
915.835
915.537
914.825
912.781
906.431
884.866
794.87
604.161
475.563
395.795
349.372
323.466
309.34
301.726
297.646
295.466
294.302
293.681
293.35
293.173
293.079
293.029
293.002
292.988
292.981
292.977
292.974
292.973
292.973
292.972
292.972
292.972
292.972
292.972
292.972
292.972
292.972
292.972
292.972
292.973
292.973
292.973
292.973
292.973
292.973
292.973
292.973
292.973
292.973
292.973
292.973
292.973
292.973
292.973
292.973
292.973
292.973
292.973
292.973
292.973
292.974
292.974
292.974
292.974
292.974
292.974
292.974
292.974
292.974
292.974
292.974
292.974
292.974
292.974
292.974
292.974
292.974
292.974
292.974
292.974
292.974
292.974
292.975
292.975
292.975
292.975
292.975
292.975
292.975
292.975
292.975
292.975
292.975
292.975
292.975
292.975
292.975
292.975
292.975
292.975
292.975
292.975
292.975
292.976
292.976
292.976
292.976
292.976
292.976
292.976
292.976
292.976
292.976
292.976
292.976
292.976
292.976
292.976
292.976
292.976
292.976
292.976
292.976
292.976
292.977
292.977
292.977
292.977
292.977
292.977
292.977
292.977
292.977
292.977
292.977
292.977
292.977
292.977
292.977
292.977
292.977
292.977
292.977
292.977
292.977
292.977
292.978
292.978
292.978
292.978
292.978
292.978
292.978
292.978
292.978
292.978
292.978
292.978
292.978
292.978
292.978
292.978
292.978
292.978
292.978
292.978
292.978
292.978
292.979
292.979
292.979
292.979
292.979
292.979
292.979
292.979
292.979
292.979
292.979
292.979
292.979
292.979
292.979
292.979
292.979
292.979
292.979
292.98
292.98
292.98
292.98
292.98
292.98
292.98
292.98
292.98
292.98
292.98
292.98
292.98
292.98
292.98
292.98
292.98
292.98
292.98
292.98
292.98
292.98
292.981
292.981
292.981
292.981
292.981
292.981
292.981
292.981
292.981
292.981
292.981
292.981
292.981
292.981
292.981
292.981
292.981
292.981
292.981
292.981
292.981
292.981
292.982
292.982
292.982
292.982
292.982
292.982
292.982
292.982
292.982
292.982
292.982
292.982
292.982
292.982
292.982
292.982
292.982
292.982
292.982
292.982
292.982
292.983
292.983
292.983
292.983
292.983
292.983
292.983
292.983
292.983
292.983
292.983
292.983
292.983
292.983
292.983
292.983
292.983
292.983
292.983
292.983
292.983
292.984
292.984
292.984
292.984
292.984
292.984
292.984
292.984
292.984
292.984
292.984
292.984
292.984
292.984
292.984
292.984
292.984
292.984
292.984
292.984
292.984
292.985
292.985
292.985
292.985
292.985
292.985
292.985
292.985
292.985
292.985
292.985
292.985
292.985
292.985
292.985
292.985
292.985
292.985
292.985
292.985
292.985
292.986
292.986
292.986
292.986
292.986
292.986
292.986
292.986
292.986
292.986
292.986
292.986
292.986
292.986
292.986
292.986
292.986
292.986
292.986
292.986
292.986
292.987
292.987
292.987
292.987
292.987
292.987
292.987
292.987
292.987
292.987
292.987
292.987
292.987
292.987
292.987
292.987
292.987
292.987
292.987
292.987
292.987
292.988
292.988
292.988
292.988
292.988
292.988
292.988
292.988
292.988
292.988
292.988
292.988
292.988
292.988
292.988
292.988
292.988
292.988
292.988
292.988
292.988
292.989
292.989
292.989
292.989
292.989
292.989
292.989
292.989
292.989
292.989
292.989
292.989
292.989
292.989
292.989
292.989
292.989
292.989
292.989
292.989
292.989
292.99
292.99
292.99
292.99
292.99
292.99
292.99
292.99
292.99
292.99
292.99
292.99
292.99
292.99
292.99
292.99
292.99
292.99
292.99
292.99
292.99
292.991
292.991
292.991
292.991
292.991
292.991
292.991
292.991
292.991
292.991
292.991
292.991
292.991
292.991
)
;

boundaryField
{
    fixedWall
    {
        type            fixedValue;
        value           uniform 293;
    }
    outlet
    {
        type            inletOutlet;
        inletValue      uniform 293;
        value           uniform 292.991;
    }
    defaultFaces
    {
        type            empty;
    }
}


// ************************************************************************* //
