/*--------------------------------*- C++ -*----------------------------------*\
| =========                 |                                                 |
| \\      /  F ield         | OpenFOAM: The Open Source CFD Toolbox           |
|  \\    /   O peration     | Version:  2406                                  |
|   \\  /    A nd           | Website:  www.openfoam.com                      |
|    \\/     M anipulation  |                                                 |
\*---------------------------------------------------------------------------*/
FoamFile
{
    version     2.0;
    format      ascii;
    arch        "LSB;label=32;scalar=64";
    class       volScalarField;
    location    "8.9";
    object      Qdot;
}
// * * * * * * * * * * * * * * * * * * * * * * * * * * * * * * * * * * * * * //

dimensions      [1 -1 -3 0 0 0 0];

internalField   nonuniform List<scalar> 
1000
(
-1.4533e-18
-4.66731e-17
-7.08314e-16
3.80442e-09
2.28265e-08
9.37386e-08
3.46796e-07
1.10733e-06
3.06214e-06
7.5215e-06
1.67324e-05
3.42541e-05
6.53219e-05
0.00011716
0.000199243
0.000323399
0.0005038
0.000756759
0.00110039
0.00155412
0.00213813
0.00287263
0.00377718
0.00486997
0.00616716
0.00768219
0.00942536
0.0114033
0.0136189
0.0160709
0.0187538
0.0216585
0.0247719
0.0280776
0.0315559
0.0351848
0.03894
0.0427959
0.0467256
0.0507019
0.0546977
0.0586861
0.0626414
0.0665392
0.0703565
0.0740725
0.0776681
0.0811269
0.0844344
0.0875786
0.0905499
0.0933409
0.0959463
0.0983631
0.10059
0.102628
0.104478
0.106145
0.107634
0.108949
0.110099
0.11109
0.111931
0.112631
0.113197
0.113639
0.113967
0.114188
0.114313
0.114349
0.114306
0.114191
0.114012
0.113777
0.113493
0.113166
0.112802
0.112408
0.111989
0.11155
0.111095
0.110629
0.110156
0.109678
0.1092
0.108723
0.108251
0.107786
0.10733
0.106884
0.106449
0.106028
0.105621
0.105229
0.104853
0.104494
0.104151
0.103825
0.103517
0.103226
0.102953
0.102697
0.102458
0.102237
0.102032
0.101844
0.101672
0.101516
0.101375
0.10125
0.101139
0.101042
0.100959
0.10089
0.100833
0.100788
0.100755
0.100734
0.100723
0.100723
0.100733
0.100752
0.10078
0.100818
0.100863
0.100916
0.100977
0.101045
0.10112
0.101201
0.101288
0.101381
0.10148
0.101583
0.101692
0.101805
0.101922
0.102043
0.102169
0.102297
0.102429
0.102564
0.102702
0.102843
0.102986
0.103132
0.103281
0.103432
0.103585
0.10374
0.103897
0.104055
0.104215
0.104376
0.104539
0.104703
0.104869
0.105035
0.105203
0.105371
0.105541
0.105712
0.105883
0.106055
0.106228
0.106402
0.106576
0.106751
0.106927
0.107103
0.10728
0.107457
0.107635
0.107813
0.107992
0.108171
0.108351
0.108531
0.108712
0.108893
0.109074
0.109256
0.109438
0.109621
0.109804
0.109988
0.110171
0.110355
0.11054
0.110725
0.11091
0.111096
0.111282
0.111468
0.111655
0.111842
0.11203
0.112218
0.112406
0.112595
0.112784
0.112974
0.113163
0.113354
0.113544
0.113735
0.113927
0.114119
0.114311
0.114504
0.114697
0.11489
0.115084
0.115279
0.115473
0.115668
0.115864
0.11606
0.116256
0.116452
0.116649
0.116847
0.117046
0.117244
0.117443
0.117643
0.117843
0.118044
0.118245
0.118446
0.118648
0.11885
0.119053
0.119256
0.11946
0.119664
0.119869
0.120074
0.120279
0.120485
0.120692
0.120899
0.121106
0.121314
0.121523
0.121732
0.121941
0.122151
0.122361
0.122572
0.122784
0.122995
0.123208
0.123421
0.123634
0.123848
0.124062
0.124277
0.124493
0.124709
0.124925
0.125142
0.125359
0.125577
0.125796
0.126015
0.126234
0.126455
0.126675
0.126896
0.127118
0.12734
0.127563
0.127786
0.12801
0.128234
0.128459
0.128685
0.128911
0.129137
0.129364
0.129592
0.12982
0.130049
0.130278
0.130508
0.130739
0.13097
0.131201
0.131434
0.131666
0.1319
0.132134
0.132368
0.132603
0.132839
0.133075
0.133312
0.133549
0.133786
0.134024
0.134263
0.134503
0.134744
0.134985
0.135227
0.135469
0.135712
0.135955
0.136199
0.136444
0.13669
0.136936
0.137182
0.13743
0.137678
0.137926
0.138175
0.138425
0.138676
0.138927
0.139179
0.139431
0.139684
0.139938
0.140193
0.140448
0.140704
0.14096
0.141217
0.141475
0.141734
0.141993
0.142253
0.142514
0.142775
0.143037
0.1433
0.143563
0.143827
0.144092
0.144358
0.144624
0.144891
0.145159
0.145427
0.145696
0.145966
0.146237
0.146508
0.146781
0.147053
0.147327
0.147602
0.147877
0.148153
0.14843
0.148707
0.148986
0.149265
0.149545
0.149825
0.150107
0.150389
0.150672
0.150956
0.151241
0.151526
0.151812
0.1521
0.152388
0.152676
0.152966
0.153257
0.153548
0.15384
0.154133
0.154427
0.154722
0.155017
0.155314
0.155611
0.155909
0.156208
0.156508
0.156809
0.15711
0.157413
0.157716
0.158021
0.158326
0.158632
0.158939
0.159247
0.159556
0.159866
0.160176
0.160488
0.1608
0.161114
0.161428
0.161743
0.162059
0.162377
0.162695
0.163014
0.163334
0.163654
0.163976
0.164299
0.164623
0.164947
0.165273
0.1656
0.165927
0.166256
0.166585
0.166916
0.167247
0.16758
0.167913
0.168247
0.168583
0.168919
0.169256
0.169595
0.169934
0.170275
0.170616
0.170958
0.171302
0.171646
0.171992
0.172338
0.172686
0.173034
0.173384
0.173735
0.174086
0.174439
0.174793
0.175148
0.175504
0.175861
0.176219
0.176578
0.176938
0.1773
0.177662
0.178026
0.17839
0.178756
0.179123
0.179491
0.17986
0.180231
0.180602
0.180975
0.181348
0.181723
0.182099
0.182476
0.182854
0.183234
0.183615
0.183996
0.184379
0.184764
0.185149
0.185536
0.185924
0.186313
0.186703
0.187094
0.187487
0.187881
0.188276
0.188673
0.18907
0.189469
0.189869
0.190271
0.190674
0.191078
0.191483
0.19189
0.192298
0.192707
0.193117
0.193529
0.193943
0.194357
0.194773
0.19519
0.195609
0.196029
0.19645
0.196872
0.197296
0.197722
0.198148
0.198577
0.199006
0.199437
0.199869
0.200303
0.200738
0.201175
0.201613
0.202052
0.202493
0.202935
0.203376
0.203822
0.204268
0.204717
0.205167
0.205618
0.206071
0.206525
0.206981
0.207438
0.207897
0.208358
0.20882
0.209283
0.209748
0.210215
0.210683
0.211153
0.211624
0.212097
0.212572
0.213048
0.213526
0.214005
0.214486
0.214969
0.215453
0.215939
0.216426
0.216916
0.217406
0.217899
0.218393
0.218889
0.219386
0.219886
0.220383
0.220886
0.22139
0.221896
0.222403
0.222912
0.223423
0.223936
0.224451
0.224967
0.225485
0.226005
0.226526
0.22705
0.227575
0.228102
0.228631
0.229162
0.229694
0.230228
0.230765
0.231303
0.231843
0.232384
0.232928
0.233474
0.234021
0.23457
0.235122
0.235675
0.23623
0.236787
0.237346
0.237907
0.23847
0.239035
0.239602
0.240171
0.240742
0.241315
0.24189
0.242467
0.243046
0.243627
0.24421
0.244795
0.245383
0.245972
0.246564
0.247158
0.247754
0.248352
0.248952
0.249554
0.250159
0.250766
0.251375
0.251986
0.2526
0.253215
0.253833
0.254454
0.255076
0.255701
0.256328
0.256958
0.257589
0.258224
0.25886
0.259499
0.26014
0.260784
0.26143
0.262078
0.262729
0.263383
0.264039
0.264697
0.265356
0.266015
0.266681
0.26735
0.268021
0.268694
0.26937
0.270048
0.27073
0.271413
0.2721
0.272789
0.27348
0.274174
0.274871
0.275571
0.276273
0.276978
0.277686
0.278397
0.27911
0.279826
0.280545
0.281267
0.281991
0.282718
0.283448
0.284181
0.284917
0.285656
0.286398
0.287142
0.28789
0.28864
0.289393
0.29015
0.290909
0.291671
0.292437
0.293205
0.293977
0.294751
0.295529
0.296309
0.297093
0.29788
0.29867
0.299463
0.300259
0.301059
0.301862
0.302668
0.303477
0.304289
0.305105
0.305923
0.306746
0.307571
0.3084
0.309232
0.310067
0.310906
0.311749
0.312594
0.313439
0.314286
0.315142
0.316001
0.316864
0.317729
0.318599
0.319472
0.320348
0.321228
0.322111
0.322998
0.323889
0.324783
0.32568
0.326582
0.327487
0.328395
0.329308
0.330224
0.331144
0.332067
0.332995
0.333926
0.334861
0.3358
0.336742
0.337689
0.338639
0.339594
0.340552
0.341515
0.342481
0.343452
0.344426
0.345405
0.346387
0.347374
0.348365
0.349361
0.35036
0.351364
0.352372
0.353385
0.354402
0.355423
0.356449
0.357479
0.358513
0.359553
0.360596
0.361645
0.362698
0.363755
0.364818
0.365885
0.366957
0.368033
0.369115
0.370201
0.371293
0.372389
0.37349
0.374596
0.375707
0.376822
0.377936
0.379062
0.380194
0.381331
0.382473
0.38362
0.384772
0.38593
0.387094
0.388263
0.389437
0.390617
0.391802
0.392992
0.394189
0.395391
0.396598
0.397811
0.39903
0.400255
0.401485
0.402721
0.403963
0.40521
0.406464
0.407723
0.408989
0.41026
0.411537
0.41282
0.414109
0.415405
0.416706
0.418013
0.419327
0.420647
0.421973
0.423305
0.424643
0.425988
0.427339
0.428696
0.43006
0.43143
0.432807
0.43419
0.435579
0.436975
0.438378
0.439788
0.441204
0.442627
0.444056
0.445493
0.446936
0.448387
0.449844
0.451309
0.452778
0.454248
0.455733
0.457224
0.458722
0.460227
0.46174
0.46326
0.464788
0.466322
0.467865
0.469414
0.470971
0.472536
0.474108
0.475688
0.477276
0.478871
0.480474
0.482085
0.483704
0.485331
0.486966
0.48861
0.490261
0.49192
0.493588
0.495264
0.496948
0.498641
0.500342
0.502052
0.50377
0.505497
0.507233
0.508977
0.51073
0.512492
0.514263
0.516043
0.517831
0.519629
0.521436
0.523252
0.525077
0.526912
0.528756
0.530609
0.532472
0.534345
0.536227
0.538119
0.540022
0.541934
0.543857
0.545791
0.547736
0.549691
0.551658
0.553637
0.555628
0.557632
0.559649
0.561681
0.563726
0.565787
0.567864
0.569959
0.572072
0.574205
0.576359
0.578536
0.580738
0.582967
0.585226
0.587516
0.589841
0.592204
0.59461
0.597061
0.599563
0.60212
0.604738
0.607423
0.610182
0.613022
0.615951
0.618977
0.622111
0.625363
0.628743
0.632265
0.635942
0.639787
0.643817
0.648048
0.652497
0.657184
0.662128
0.667352
0.672878
0.678729
0.684931
0.691511
0.698495
0.705912
0.713792
0.722163
0.731057
0.740503
0.750533
0.761177
0.772462
0.784416
0.797064
0.810428
0.824525
0.839369
0.854965
0.871314
0.888405
0.906218
0.924719
0.94386
0.963576
0.983785
1.00438
1.02523
1.04618
1.06705
1.08762
1.10764
1.12683
1.14486
1.1614
1.17604
1.18838
1.19796
1.20433
1.20701
1.20551
1.19939
1.18819
1.17153
1.14909
1.12061
1.08598
1.04518
0.998375
0.945864
0.888138
0.825858
0.759863
0.691147
0.620835
0.550151
0.480363
0.412735
0.348469
0.288636
0.234131
0.186052
0.144373
0.108635
0.0793004
0.0559733
0.0380593
0.0248219
0.0154498
0.00912381
0.00507697
0.00264045
0.00127117
0.000559974
0.000222605
7.85221e-05
2.40752e-05
6.25446e-06
1.33351e-06
2.23942e-07
2.83226e-08
2.37776e-09
-2.79759e-16
-8.02107e-18
-8.3844e-20
0
)
;

boundaryField
{
    fixedWall
    {
        type            calculated;
        value           uniform 0;
    }
    outlet
    {
        type            calculated;
        value           uniform 0;
    }
    defaultFaces
    {
        type            empty;
    }
}


// ************************************************************************* //
