/*--------------------------------*- C++ -*----------------------------------*\
| =========                 |                                                 |
| \\      /  F ield         | OpenFOAM: The Open Source CFD Toolbox           |
|  \\    /   O peration     | Version:  2406                                  |
|   \\  /    A nd           | Website:  www.openfoam.com                      |
|    \\/     M anipulation  |                                                 |
\*---------------------------------------------------------------------------*/
FoamFile
{
    version     2.0;
    format      ascii;
    arch        "LSB;label=32;scalar=64";
    class       volScalarField;
    location    "5.9";
    object      T;
}
// * * * * * * * * * * * * * * * * * * * * * * * * * * * * * * * * * * * * * //

dimensions      [0 0 0 1 0 0 0];

internalField   nonuniform List<scalar> 
1000
(
310.013
340.584
368.301
393.715
417.218
439.097
459.572
478.817
496.971
514.148
530.441
545.932
560.688
574.765
588.216
601.085
613.409
625.223
636.558
647.442
657.899
667.951
677.62
686.923
695.878
704.501
712.806
720.807
728.516
735.946
743.107
750.009
756.663
763.077
769.261
775.223
780.97
786.509
791.849
796.996
801.956
806.736
811.341
815.778
820.052
824.168
828.132
831.947
835.62
839.155
842.556
845.828
848.975
852.001
854.909
857.704
860.39
862.97
865.447
867.825
870.108
872.298
874.399
876.413
878.344
880.195
881.967
883.665
885.291
886.847
888.335
889.759
891.12
892.421
893.663
894.851
895.984
897.066
898.097
899.082
900.02
900.914
901.765
902.576
903.348
904.083
904.781
905.445
906.076
906.676
907.245
907.785
908.298
908.784
909.245
909.681
910.095
910.486
910.856
911.207
911.538
911.851
912.147
912.426
912.69
912.938
913.173
913.393
913.601
913.797
913.981
914.153
914.316
914.469
914.613
914.748
914.875
914.994
915.106
915.21
915.308
915.4
915.485
915.566
915.64
915.71
915.776
915.836
915.893
915.946
915.995
916.041
916.084
916.123
916.16
916.194
916.226
916.256
916.283
916.308
916.331
916.353
916.373
916.391
916.408
916.424
916.438
916.452
916.464
916.475
916.485
916.495
916.503
916.511
916.518
916.525
916.531
916.536
916.541
916.545
916.549
916.553
916.556
916.559
916.561
916.564
916.565
916.567
916.569
916.57
916.571
916.572
916.573
916.573
916.574
916.574
916.574
916.574
916.574
916.574
916.574
916.573
916.573
916.572
916.572
916.571
916.571
916.57
916.569
916.569
916.568
916.567
916.566
916.565
916.564
916.563
916.562
916.561
916.56
916.559
916.558
916.557
916.556
916.555
916.554
916.552
916.551
916.55
916.549
916.548
916.547
916.545
916.544
916.543
916.542
916.54
916.539
916.538
916.537
916.536
916.534
916.533
916.532
916.531
916.529
916.528
916.527
916.526
916.525
916.523
916.522
916.521
916.52
916.519
916.517
916.516
916.515
916.514
916.513
916.512
916.511
916.51
916.508
916.507
916.506
916.505
916.504
916.503
916.502
916.501
916.5
916.499
916.498
916.497
916.497
916.496
916.495
916.494
916.493
916.492
916.491
916.491
916.49
916.489
916.488
916.488
916.487
916.486
916.486
916.485
916.485
916.484
916.483
916.483
916.482
916.482
916.481
916.481
916.48
916.48
916.48
916.479
916.479
916.479
916.478
916.478
916.478
916.477
916.477
916.477
916.477
916.477
916.477
916.476
916.476
916.476
916.476
916.476
916.476
916.476
916.476
916.476
916.476
916.476
916.476
916.476
916.476
916.477
916.477
916.477
916.477
916.477
916.478
916.478
916.478
916.478
916.479
916.479
916.479
916.479
916.48
916.48
916.48
916.481
916.481
916.482
916.482
916.483
916.483
916.483
916.484
916.484
916.485
916.485
916.486
916.486
916.487
916.487
916.488
916.489
916.489
916.49
916.49
916.491
916.491
916.492
916.493
916.493
916.494
916.494
916.495
916.496
916.496
916.497
916.497
916.498
916.499
916.499
916.5
916.501
916.501
916.502
916.502
916.503
916.504
916.504
916.505
916.505
916.506
916.506
916.507
916.507
916.508
916.508
916.509
916.509
916.51
916.51
916.511
916.511
916.511
916.512
916.512
916.512
916.513
916.513
916.513
916.513
916.514
916.514
916.514
916.514
916.514
916.515
916.515
916.515
916.515
916.515
916.515
916.515
916.515
916.515
916.515
916.515
916.515
916.515
916.515
916.514
916.514
916.514
916.514
916.514
916.514
916.513
916.513
916.513
916.513
916.513
916.512
916.512
916.512
916.512
916.512
916.511
916.511
916.511
916.511
916.51
916.51
916.51
916.51
916.51
916.509
916.509
916.509
916.509
916.509
916.509
916.509
916.509
916.509
916.508
916.508
916.508
916.508
916.508
916.508
916.508
916.508
916.508
916.508
916.509
916.509
916.509
916.509
916.509
916.509
916.509
916.509
916.509
916.51
916.51
916.51
916.51
916.51
916.51
916.511
916.511
916.511
916.511
916.511
916.511
916.512
916.512
916.512
916.512
916.512
916.512
916.513
916.513
916.513
916.513
916.513
916.513
916.514
916.514
916.514
916.514
916.514
916.514
916.514
916.514
916.515
916.515
916.515
916.515
916.515
916.515
916.515
916.515
916.515
916.515
916.515
916.515
916.515
916.515
916.515
916.515
916.515
916.515
916.515
916.515
916.515
916.515
916.516
916.516
916.516
916.516
916.516
916.516
916.515
916.515
916.515
916.515
916.515
916.515
916.515
916.515
916.515
916.515
916.515
916.515
916.515
916.515
916.515
916.515
916.515
916.514
916.514
916.514
916.514
916.514
916.514
916.514
916.513
916.513
916.513
916.513
916.513
916.512
916.512
916.512
916.512
916.512
916.511
916.511
916.511
916.511
916.51
916.51
916.51
916.51
916.509
916.509
916.509
916.509
916.509
916.508
916.508
916.508
916.508
916.508
916.508
916.508
916.508
916.508
916.508
916.508
916.508
916.508
916.508
916.508
916.508
916.508
916.509
916.509
916.509
916.509
916.51
916.51
916.51
916.511
916.511
916.511
916.512
916.512
916.513
916.513
916.514
916.514
916.515
916.515
916.516
916.516
916.517
916.517
916.517
916.518
916.518
916.519
916.519
916.52
916.52
916.52
916.521
916.521
916.521
916.521
916.522
916.522
916.522
916.522
916.522
916.522
916.522
916.522
916.522
916.522
916.522
916.522
916.522
916.522
916.521
916.521
916.521
916.521
916.52
916.52
916.52
916.52
916.519
916.519
916.519
916.519
916.518
916.518
916.518
916.518
916.517
916.517
916.517
916.517
916.517
916.517
916.517
916.516
916.516
916.516
916.516
916.516
916.516
916.516
916.516
916.516
916.516
916.516
916.516
916.516
916.516
916.516
916.516
916.516
916.516
916.516
916.516
916.515
916.515
916.515
916.515
916.515
916.514
916.514
916.514
916.513
916.513
916.512
916.512
916.511
916.511
916.51
916.51
916.509
916.509
916.508
916.507
916.507
916.506
916.505
916.504
916.504
916.503
916.502
916.502
916.501
916.5
916.5
916.499
916.498
916.498
916.497
916.497
916.496
916.496
916.496
916.496
916.495
916.495
916.495
916.495
916.495
916.496
916.496
916.496
916.497
916.497
916.498
916.498
916.499
916.5
916.501
916.502
916.503
916.504
916.505
916.507
916.508
916.509
916.511
916.512
916.514
916.515
916.517
916.519
916.52
916.522
916.523
916.525
916.527
916.528
916.53
916.531
916.533
916.534
916.535
916.536
916.538
916.539
916.54
916.541
916.541
916.542
916.543
916.543
916.543
916.544
916.544
916.544
916.544
916.544
916.544
916.543
916.543
916.542
916.542
916.541
916.54
916.539
916.538
916.537
916.536
916.535
916.534
916.533
916.531
916.53
916.529
916.527
916.526
916.524
916.522
916.521
916.519
916.517
916.516
916.514
916.512
916.51
916.508
916.506
916.504
916.502
916.501
916.499
916.497
916.495
916.493
916.491
916.489
916.488
916.486
916.484
916.483
916.481
916.48
916.479
916.478
916.477
916.476
916.475
916.474
916.474
916.474
916.473
916.473
916.473
916.474
916.474
916.474
916.475
916.476
916.477
916.478
916.479
916.48
916.481
916.482
916.483
916.485
916.486
916.487
916.489
916.49
916.491
916.493
916.494
916.495
916.497
916.498
916.499
916.501
916.502
916.503
916.505
916.506
916.507
916.508
916.51
916.511
916.512
916.513
916.514
916.515
916.515
916.516
916.516
916.516
916.516
916.515
916.514
916.513
916.512
916.51
916.508
916.505
916.503
916.5
916.497
916.494
916.49
916.487
916.484
916.48
916.477
916.474
916.472
916.47
916.468
916.467
916.466
916.465
916.466
916.466
916.467
916.469
916.471
916.473
916.476
916.479
916.482
916.485
916.487
916.49
916.492
916.493
916.494
916.494
916.493
916.491
916.487
916.483
916.477
916.47
916.462
916.453
916.443
916.433
916.422
916.412
916.403
916.394
916.386
916.379
916.374
916.37
916.367
916.365
916.365
916.365
916.366
916.369
916.373
916.378
916.385
916.393
916.401
916.409
916.415
916.415
916.405
916.377
916.326
916.246
916.135
915.992
915.805
915.494
914.772
912.745
906.513
885.444
797.861
606.929
477.867
397.505
350.517
324.184
309.773
301.983
297.797
295.554
294.353
293.711
293.367
293.184
293.085
293.033
293.005
292.99
292.982
292.978
292.975
292.974
292.974
292.973
292.973
292.973
292.973
292.973
292.973
292.973
292.974
292.974
292.974
292.974
292.974
292.974
292.974
292.974
292.974
292.974
292.974
292.974
292.975
292.975
292.975
292.975
292.975
292.975
292.975
292.975
)
;

boundaryField
{
    fixedWall
    {
        type            fixedValue;
        value           uniform 293;
    }
    outlet
    {
        type            inletOutlet;
        inletValue      uniform 293;
        value           uniform 292.975;
    }
    defaultFaces
    {
        type            empty;
    }
}


// ************************************************************************* //
