/*--------------------------------*- C++ -*----------------------------------*\
| =========                 |                                                 |
| \\      /  F ield         | OpenFOAM: The Open Source CFD Toolbox           |
|  \\    /   O peration     | Version:  2406                                  |
|   \\  /    A nd           | Website:  www.openfoam.com                      |
|    \\/     M anipulation  |                                                 |
\*---------------------------------------------------------------------------*/
FoamFile
{
    version     2.0;
    format      ascii;
    arch        "LSB;label=32;scalar=64";
    class       volScalarField;
    location    "1.2";
    object      H2O;
}
// * * * * * * * * * * * * * * * * * * * * * * * * * * * * * * * * * * * * * //

dimensions      [0 0 0 0 0 0 0];

internalField   nonuniform List<scalar> 
1000
(
0.0580662
0.0580662
0.0580662
0.0580662
0.0580662
0.0580662
0.0580662
0.0580662
0.0580662
0.0580662
0.0580662
0.0580662
0.0580662
0.0580662
0.0580662
0.0580662
0.0580662
0.0580662
0.0580662
0.0580662
0.0580662
0.0580662
0.0580662
0.0580662
0.0580662
0.0580662
0.0580662
0.0580662
0.0580662
0.0580662
0.0580662
0.0580662
0.0580662
0.0580661
0.0580661
0.0580661
0.0580661
0.0580661
0.0580661
0.0580661
0.0580661
0.0580661
0.0580661
0.058066
0.058066
0.058066
0.058066
0.058066
0.058066
0.058066
0.0580659
0.0580659
0.0580659
0.0580659
0.0580659
0.0580659
0.0580659
0.0580658
0.0580658
0.0580658
0.0580658
0.0580658
0.0580658
0.0580658
0.0580657
0.0580657
0.0580657
0.0580657
0.0580657
0.0580657
0.0580656
0.0580656
0.0580656
0.0580656
0.0580656
0.0580656
0.0580655
0.0580655
0.0580655
0.0580655
0.0580655
0.0580655
0.0580654
0.0580654
0.0580654
0.0580654
0.0580654
0.0580653
0.0580653
0.0580653
0.0580653
0.0580653
0.0580652
0.0580652
0.0580652
0.0580652
0.0580651
0.0580651
0.0580651
0.058065
0.058065
0.058065
0.058065
0.0580649
0.0580649
0.0580649
0.0580648
0.0580648
0.0580648
0.0580647
0.0580647
0.0580646
0.0580646
0.0580646
0.0580645
0.0580645
0.0580644
0.0580644
0.0580643
0.0580643
0.0580642
0.0580642
0.0580641
0.0580641
0.058064
0.0580639
0.0580639
0.0580638
0.0580637
0.0580636
0.0580636
0.0580635
0.0580634
0.0580633
0.0580632
0.0580631
0.058063
0.0580629
0.0580628
0.0580627
0.0580626
0.0580624
0.0580623
0.0580622
0.058062
0.0580619
0.0580617
0.0580615
0.0580613
0.0580611
0.0580609
0.0580606
0.0580604
0.0580601
0.0580598
0.0580595
0.0580591
0.0580587
0.0580583
0.0580578
0.0580572
0.0580566
0.0580559
0.0580552
0.0580543
0.0580534
0.0580522
0.0580509
0.0580494
0.0580476
0.0580454
0.0580427
0.0580393
0.0580348
0.0580287
0.0580199
0.0580068
0.0579858
0.0579498
0.0578815
0.0577332
0.0573477
0.0561747
0.0520478
0.0289904
0.0148419
0.00752489
0.0037836
0.00189113
0.000941607
0.000467728
0.000232007
0.000114985
5.69585e-05
2.8206e-05
1.3965e-05
6.91326e-06
3.42208e-06
1.69385e-06
8.38405e-07
4.14989e-07
2.05421e-07
1.01695e-07
5.03557e-08
2.49443e-08
1.23684e-08
6.1388e-09
3.0573e-09
1.53643e-09
7.74158e-10
4.09292e-10
2.38375e-10
1.66977e-10
1.05284e-10
7.46534e-11
5.83279e-11
5.05214e-11
4.64272e-11
4.38191e-11
4.18826e-11
4.09999e-11
4.0451e-11
4.01937e-11
3.99666e-11
3.98697e-11
3.98176e-11
3.9786e-11
3.97736e-11
3.9763e-11
3.97572e-11
3.97544e-11
3.97529e-11
3.97521e-11
3.97513e-11
3.9751e-11
3.97509e-11
3.97508e-11
3.97507e-11
3.97507e-11
3.97507e-11
3.97507e-11
3.97508e-11
3.97508e-11
3.97508e-11
3.97508e-11
3.97508e-11
3.97509e-11
3.97509e-11
3.97509e-11
3.9751e-11
3.9751e-11
3.9751e-11
3.9751e-11
3.97511e-11
3.97511e-11
3.97511e-11
3.97512e-11
3.97512e-11
3.97512e-11
3.97512e-11
3.97513e-11
3.97513e-11
3.97513e-11
3.97514e-11
3.97514e-11
3.97514e-11
3.97514e-11
3.97515e-11
3.97515e-11
3.97515e-11
3.97516e-11
3.97516e-11
3.97516e-11
3.97516e-11
3.97517e-11
3.97517e-11
3.97517e-11
3.97517e-11
3.97518e-11
3.97518e-11
3.97518e-11
3.97518e-11
3.97519e-11
3.97519e-11
3.97519e-11
3.9752e-11
3.9752e-11
3.9752e-11
3.9752e-11
3.97521e-11
3.97521e-11
3.97521e-11
3.97522e-11
3.97522e-11
3.97522e-11
3.97522e-11
3.97523e-11
3.97523e-11
3.97523e-11
3.97523e-11
3.97524e-11
3.97524e-11
3.97524e-11
3.97524e-11
3.97525e-11
3.97525e-11
3.97525e-11
3.97526e-11
3.97526e-11
3.97526e-11
3.97526e-11
3.97527e-11
3.97527e-11
3.97527e-11
3.97527e-11
3.97528e-11
3.97528e-11
3.97528e-11
3.97528e-11
3.97529e-11
3.97529e-11
3.97529e-11
3.97529e-11
3.9753e-11
3.9753e-11
3.9753e-11
3.97531e-11
3.97531e-11
3.97531e-11
3.97531e-11
3.97531e-11
3.97532e-11
3.97532e-11
3.97532e-11
3.97533e-11
3.97533e-11
3.97533e-11
3.97533e-11
3.97534e-11
3.97534e-11
3.97534e-11
3.97534e-11
3.97535e-11
3.97535e-11
3.97535e-11
3.97535e-11
3.97536e-11
3.97536e-11
3.97536e-11
3.97536e-11
3.97537e-11
3.97537e-11
3.97537e-11
3.97537e-11
3.97538e-11
3.97538e-11
3.97538e-11
3.97538e-11
3.97539e-11
3.97539e-11
3.97539e-11
3.9754e-11
3.9754e-11
3.9754e-11
3.9754e-11
3.97541e-11
3.97541e-11
3.97541e-11
3.97541e-11
3.97542e-11
3.97542e-11
3.97542e-11
3.97542e-11
3.97543e-11
3.97543e-11
3.97543e-11
3.97543e-11
3.97544e-11
3.97544e-11
3.97544e-11
3.97544e-11
3.97545e-11
3.97545e-11
3.97545e-11
3.97545e-11
3.97546e-11
3.97546e-11
3.97546e-11
3.97547e-11
3.97547e-11
3.97547e-11
3.97547e-11
3.97548e-11
3.97548e-11
3.97548e-11
3.97548e-11
3.97549e-11
3.97549e-11
3.97549e-11
3.9755e-11
3.9755e-11
3.9755e-11
3.9755e-11
3.97551e-11
3.97551e-11
3.97551e-11
3.97551e-11
3.97552e-11
3.97552e-11
3.97552e-11
3.97553e-11
3.97553e-11
3.97553e-11
3.97553e-11
3.97554e-11
3.97554e-11
3.97554e-11
3.97554e-11
3.97555e-11
3.97555e-11
3.97555e-11
3.97556e-11
3.97556e-11
3.97556e-11
3.97556e-11
3.97557e-11
3.97557e-11
3.97557e-11
3.97558e-11
3.97558e-11
3.97558e-11
3.97559e-11
3.97559e-11
3.97559e-11
3.97559e-11
3.9756e-11
3.9756e-11
3.9756e-11
3.97561e-11
3.97561e-11
3.97561e-11
3.97561e-11
3.97562e-11
3.97562e-11
3.97562e-11
3.97563e-11
3.97563e-11
3.97563e-11
3.97564e-11
3.97564e-11
3.97564e-11
3.97564e-11
3.97565e-11
3.97565e-11
3.97565e-11
3.97566e-11
3.97566e-11
3.97566e-11
3.97566e-11
3.97567e-11
3.97567e-11
3.97568e-11
3.97568e-11
3.97568e-11
3.97568e-11
3.97569e-11
3.97569e-11
3.97569e-11
3.9757e-11
3.9757e-11
3.9757e-11
3.97571e-11
3.97571e-11
3.97571e-11
3.97572e-11
3.97572e-11
3.97572e-11
3.97573e-11
3.97573e-11
3.97573e-11
3.97574e-11
3.97574e-11
3.97574e-11
3.97574e-11
3.97575e-11
3.97575e-11
3.97575e-11
3.97576e-11
3.97576e-11
3.97576e-11
3.97577e-11
3.97577e-11
3.97577e-11
3.97578e-11
3.97578e-11
3.97578e-11
3.97579e-11
3.97579e-11
3.97579e-11
3.9758e-11
3.9758e-11
3.9758e-11
3.97581e-11
3.97581e-11
3.97581e-11
3.97582e-11
3.97582e-11
3.97582e-11
3.97583e-11
3.97583e-11
3.97583e-11
3.97584e-11
3.97584e-11
3.97584e-11
3.97585e-11
3.97585e-11
3.97585e-11
3.97586e-11
3.97586e-11
3.97586e-11
3.97587e-11
3.97587e-11
3.97587e-11
3.97588e-11
3.97588e-11
3.97588e-11
3.97589e-11
3.97589e-11
3.97589e-11
3.9759e-11
3.9759e-11
3.97591e-11
3.97591e-11
3.97591e-11
3.97592e-11
3.97592e-11
3.97592e-11
3.97593e-11
3.97593e-11
3.97593e-11
3.97594e-11
3.97594e-11
3.97594e-11
3.97595e-11
3.97595e-11
3.97595e-11
3.97596e-11
3.97596e-11
3.97596e-11
3.97597e-11
3.97597e-11
3.97597e-11
3.97598e-11
3.97598e-11
3.97598e-11
3.97599e-11
3.97599e-11
3.976e-11
3.976e-11
3.976e-11
3.97601e-11
3.97601e-11
3.97601e-11
3.97602e-11
3.97602e-11
3.97603e-11
3.97603e-11
3.97603e-11
3.97604e-11
3.97604e-11
3.97604e-11
3.97605e-11
3.97605e-11
3.97605e-11
3.97606e-11
3.97606e-11
3.97606e-11
3.97607e-11
3.97607e-11
3.97608e-11
3.97608e-11
3.97608e-11
3.97609e-11
3.97609e-11
3.9761e-11
3.9761e-11
3.9761e-11
3.97611e-11
3.97611e-11
3.97611e-11
3.97612e-11
3.97612e-11
3.97612e-11
3.97613e-11
3.97613e-11
3.97613e-11
3.97614e-11
3.97614e-11
3.97615e-11
3.97615e-11
3.97615e-11
3.97616e-11
3.97616e-11
3.97617e-11
3.97617e-11
3.97617e-11
3.97618e-11
3.97618e-11
3.97618e-11
3.97619e-11
3.97619e-11
3.97619e-11
3.9762e-11
3.9762e-11
3.97621e-11
3.97621e-11
3.97621e-11
3.97622e-11
3.97622e-11
3.97622e-11
3.97623e-11
3.97623e-11
3.97624e-11
3.97624e-11
3.97624e-11
3.97625e-11
3.97625e-11
3.97625e-11
3.97626e-11
3.97626e-11
3.97627e-11
3.97627e-11
3.97627e-11
3.97628e-11
3.97628e-11
3.97629e-11
3.97629e-11
3.97629e-11
3.9763e-11
3.9763e-11
3.97631e-11
3.97631e-11
3.97631e-11
3.97632e-11
3.97632e-11
3.97632e-11
3.97633e-11
3.97633e-11
3.97633e-11
3.97634e-11
3.97634e-11
3.97635e-11
3.97635e-11
3.97635e-11
3.97636e-11
3.97636e-11
3.97637e-11
3.97637e-11
3.97637e-11
3.97638e-11
3.97638e-11
3.97639e-11
3.97639e-11
3.97639e-11
3.9764e-11
3.9764e-11
3.97641e-11
3.97641e-11
3.97641e-11
3.97642e-11
3.97642e-11
3.97642e-11
3.97643e-11
3.97643e-11
3.97644e-11
3.97644e-11
3.97644e-11
3.97645e-11
3.97645e-11
3.97646e-11
3.97646e-11
3.97646e-11
3.97647e-11
3.97647e-11
3.97648e-11
3.97648e-11
3.97648e-11
3.97649e-11
3.97649e-11
3.9765e-11
3.9765e-11
3.9765e-11
3.97651e-11
3.97651e-11
3.97652e-11
3.97652e-11
3.97652e-11
3.97653e-11
3.97653e-11
3.97654e-11
3.97654e-11
3.97654e-11
3.97655e-11
3.97655e-11
3.97655e-11
3.97656e-11
3.97656e-11
3.97657e-11
3.97657e-11
3.97658e-11
3.97658e-11
3.97658e-11
3.97659e-11
3.97659e-11
3.97659e-11
3.9766e-11
3.9766e-11
3.97661e-11
3.97661e-11
3.97662e-11
3.97662e-11
3.97662e-11
3.97663e-11
3.97663e-11
3.97664e-11
3.97664e-11
3.97664e-11
3.97665e-11
3.97665e-11
3.97666e-11
3.97666e-11
3.97667e-11
3.97667e-11
3.97667e-11
3.97668e-11
3.97668e-11
3.97668e-11
3.97669e-11
3.97669e-11
3.9767e-11
3.9767e-11
3.97671e-11
3.97671e-11
3.97671e-11
3.97672e-11
3.97672e-11
3.97673e-11
3.97673e-11
3.97673e-11
3.97674e-11
3.97674e-11
3.97675e-11
3.97675e-11
3.97675e-11
3.97676e-11
3.97676e-11
3.97677e-11
3.97677e-11
3.97678e-11
3.97678e-11
3.97678e-11
3.97679e-11
3.97679e-11
3.9768e-11
3.9768e-11
3.97681e-11
3.97681e-11
3.97681e-11
3.97682e-11
3.97682e-11
3.97683e-11
3.97683e-11
3.97684e-11
3.97684e-11
3.97684e-11
3.97685e-11
3.97685e-11
3.97686e-11
3.97686e-11
3.97686e-11
3.97687e-11
3.97687e-11
3.97688e-11
3.97688e-11
3.97688e-11
3.97689e-11
3.9769e-11
3.9769e-11
3.9769e-11
3.97691e-11
3.97691e-11
3.97691e-11
3.97692e-11
3.97693e-11
3.97693e-11
3.97693e-11
3.97694e-11
3.97694e-11
3.97695e-11
3.97695e-11
3.97695e-11
3.97696e-11
3.97696e-11
3.97697e-11
3.97697e-11
3.97698e-11
3.97698e-11
3.97699e-11
3.97699e-11
3.97699e-11
3.977e-11
3.977e-11
3.97701e-11
3.97701e-11
3.97702e-11
3.97702e-11
3.97703e-11
3.97703e-11
3.97703e-11
3.97704e-11
3.97704e-11
3.97705e-11
3.97705e-11
3.97706e-11
3.97706e-11
3.97706e-11
3.97707e-11
3.97707e-11
3.97708e-11
3.97708e-11
3.97709e-11
3.97709e-11
3.9771e-11
3.9771e-11
3.97711e-11
3.97711e-11
3.97711e-11
3.97712e-11
3.97712e-11
3.97713e-11
3.97713e-11
3.97714e-11
3.97714e-11
3.97715e-11
3.97715e-11
3.97715e-11
3.97716e-11
3.97716e-11
3.97717e-11
3.97717e-11
3.97718e-11
3.97718e-11
3.97719e-11
3.97719e-11
3.9772e-11
3.9772e-11
3.9772e-11
3.97721e-11
3.97721e-11
3.97722e-11
3.97722e-11
3.97723e-11
3.97723e-11
3.97724e-11
3.97724e-11
3.97725e-11
3.97725e-11
3.97725e-11
3.97726e-11
3.97727e-11
3.97727e-11
3.97727e-11
3.97728e-11
3.97728e-11
3.97729e-11
3.97729e-11
3.9773e-11
3.9773e-11
3.97731e-11
3.97731e-11
3.97732e-11
3.97732e-11
3.97733e-11
3.97733e-11
3.97733e-11
3.97734e-11
3.97734e-11
3.97735e-11
3.97735e-11
3.97736e-11
3.97736e-11
3.97737e-11
3.97737e-11
3.97738e-11
3.97738e-11
3.97739e-11
3.97739e-11
3.9774e-11
3.9774e-11
3.9774e-11
3.97741e-11
3.97742e-11
3.97742e-11
3.97742e-11
3.97743e-11
3.97743e-11
3.97744e-11
3.97744e-11
3.97745e-11
3.97745e-11
3.97746e-11
3.97746e-11
3.97747e-11
3.97747e-11
3.97748e-11
3.97748e-11
3.97749e-11
3.97749e-11
3.9775e-11
3.9775e-11
3.97751e-11
3.97751e-11
3.97752e-11
3.97752e-11
3.97753e-11
3.97753e-11
3.97754e-11
3.97754e-11
3.97755e-11
3.97755e-11
3.97755e-11
3.97756e-11
3.97756e-11
3.97757e-11
3.97757e-11
3.97758e-11
3.97759e-11
3.97759e-11
3.97759e-11
3.9776e-11
3.9776e-11
3.97761e-11
3.97761e-11
3.97762e-11
3.97762e-11
3.97763e-11
3.97763e-11
3.97764e-11
3.97764e-11
3.97765e-11
3.97765e-11
3.97766e-11
3.97766e-11
3.97767e-11
3.97767e-11
3.97768e-11
3.97768e-11
3.97769e-11
3.97769e-11
3.9777e-11
3.9777e-11
3.97771e-11
3.97771e-11
3.97772e-11
3.97772e-11
3.97773e-11
3.97773e-11
3.97774e-11
3.97774e-11
3.97775e-11
3.97775e-11
3.97776e-11
3.97776e-11
3.97777e-11
3.97777e-11
3.97778e-11
3.97778e-11
3.97779e-11
3.97779e-11
3.9778e-11
3.9778e-11
3.97781e-11
3.97781e-11
3.97782e-11
3.97782e-11
3.97783e-11
3.97783e-11
3.97784e-11
3.97784e-11
3.97785e-11
3.97786e-11
3.97786e-11
3.97786e-11
3.97787e-11
3.97788e-11
3.97788e-11
3.97788e-11
3.97789e-11
3.97789e-11
3.9779e-11
)
;

boundaryField
{
    fixedWall
    {
        type            zeroGradient;
    }
    outlet
    {
        type            inletOutlet;
        inletValue      uniform 0;
        value           uniform 3.9779e-11;
    }
    defaultFaces
    {
        type            empty;
    }
}


// ************************************************************************* //
