/*--------------------------------*- C++ -*----------------------------------*\
| =========                 |                                                 |
| \\      /  F ield         | OpenFOAM: The Open Source CFD Toolbox           |
|  \\    /   O peration     | Version:  2406                                  |
|   \\  /    A nd           | Website:  www.openfoam.com                      |
|    \\/     M anipulation  |                                                 |
\*---------------------------------------------------------------------------*/
FoamFile
{
    version     2.0;
    format      ascii;
    arch        "LSB;label=32;scalar=64";
    class       surfaceScalarField;
    location    "1.4";
    object      phi;
}
// * * * * * * * * * * * * * * * * * * * * * * * * * * * * * * * * * * * * * //

dimensions      [1 0 -1 0 0 0 0];

oriented        oriented;

internalField   nonuniform List<scalar> 
999
(
-4.96315e-07
-1.24203e-06
-2.0405e-06
-2.83411e-06
-3.60338e-06
-4.34181e-06
-5.04795e-06
-5.72273e-06
-6.36849e-06
-6.99803e-06
-7.59904e-06
-8.15382e-06
-8.68326e-06
-9.19134e-06
-9.67771e-06
-1.01422e-05
-1.0585e-05
-1.10069e-05
-1.14085e-05
-1.17906e-05
-1.21538e-05
-1.24988e-05
-1.28261e-05
-1.31363e-05
-1.343e-05
-1.37078e-05
-1.397e-05
-1.42173e-05
-1.44502e-05
-1.46692e-05
-1.48754e-05
-1.50653e-05
-1.52452e-05
-1.54146e-05
-1.55732e-05
-1.57211e-05
-1.58588e-05
-1.59869e-05
-1.61059e-05
-1.62163e-05
-1.63187e-05
-1.64136e-05
-1.65015e-05
-1.65828e-05
-1.66581e-05
-1.67277e-05
-1.67922e-05
-1.68519e-05
-1.69073e-05
-1.69588e-05
-1.70066e-05
-1.70512e-05
-1.70929e-05
-1.71321e-05
-1.71689e-05
-1.72036e-05
-1.72365e-05
-1.72678e-05
-1.72978e-05
-1.73265e-05
-1.73543e-05
-1.73811e-05
-1.74073e-05
-1.74328e-05
-1.74578e-05
-1.74824e-05
-1.75067e-05
-1.75307e-05
-1.75545e-05
-1.75782e-05
-1.76019e-05
-1.76255e-05
-1.7649e-05
-1.76726e-05
-1.76963e-05
-1.772e-05
-1.77437e-05
-1.77676e-05
-1.77915e-05
-1.78155e-05
-1.78397e-05
-1.78639e-05
-1.78882e-05
-1.79127e-05
-1.79372e-05
-1.79618e-05
-1.79865e-05
-1.80113e-05
-1.80362e-05
-1.80611e-05
-1.80861e-05
-1.81112e-05
-1.81363e-05
-1.81615e-05
-1.81868e-05
-1.82121e-05
-1.82374e-05
-1.82628e-05
-1.82881e-05
-1.83135e-05
-1.8339e-05
-1.83644e-05
-1.83899e-05
-1.84153e-05
-1.84408e-05
-1.84662e-05
-1.84917e-05
-1.85171e-05
-1.85426e-05
-1.8568e-05
-1.85934e-05
-1.86187e-05
-1.86441e-05
-1.86694e-05
-1.86947e-05
-1.872e-05
-1.87452e-05
-1.87704e-05
-1.87955e-05
-1.88206e-05
-1.88457e-05
-1.88707e-05
-1.88957e-05
-1.89206e-05
-1.89456e-05
-1.89704e-05
-1.89952e-05
-1.902e-05
-1.90448e-05
-1.90696e-05
-1.90943e-05
-1.9119e-05
-1.91437e-05
-1.91684e-05
-1.91931e-05
-1.92178e-05
-1.92425e-05
-1.92673e-05
-1.92921e-05
-1.93169e-05
-1.93418e-05
-1.93668e-05
-1.93918e-05
-1.94168e-05
-1.9442e-05
-1.94672e-05
-1.94924e-05
-1.95178e-05
-1.95431e-05
-1.95686e-05
-1.9594e-05
-1.96195e-05
-1.96451e-05
-1.96706e-05
-1.96961e-05
-1.97217e-05
-1.97472e-05
-1.97727e-05
-1.97982e-05
-1.98238e-05
-1.98492e-05
-1.98747e-05
-1.99003e-05
-1.99258e-05
-1.99513e-05
-1.99768e-05
-2.00024e-05
-2.00279e-05
-2.00534e-05
-2.00789e-05
-2.01043e-05
-2.01296e-05
-2.01547e-05
-2.01797e-05
-2.02044e-05
-2.02288e-05
-2.0253e-05
-2.02768e-05
-2.03002e-05
-2.03234e-05
-2.03463e-05
-2.03691e-05
-2.03917e-05
-2.04144e-05
-2.04371e-05
-2.04602e-05
-2.04835e-05
-2.05072e-05
-2.05313e-05
-2.05559e-05
-2.05806e-05
-2.06055e-05
-2.06302e-05
-2.06547e-05
-2.06786e-05
-2.07017e-05
-2.07239e-05
-2.07449e-05
-2.07648e-05
-2.07833e-05
-2.08003e-05
-2.08154e-05
-2.08284e-05
-2.08388e-05
-2.0846e-05
-2.08498e-05
-2.08488e-05
-2.08382e-05
-2.07997e-05
-2.06802e-05
-2.03398e-05
-1.9413e-05
-1.68253e-05
-8.90285e-06
1.99227e-05
0.000231328
0.000441731
0.00063096
0.000779516
0.000881446
0.000944645
0.000981339
0.00100182
0.00101298
0.00101898
0.00102216
0.00102382
0.00102468
0.00102509
0.00102528
0.00102534
0.00102534
0.0010253
0.00102524
0.00102518
0.00102511
0.00102503
0.00102496
0.00102488
0.0010248
0.00102473
0.00102465
0.00102457
0.0010245
0.00102442
0.00102434
0.00102427
0.00102419
0.00102411
0.00102404
0.00102396
0.00102389
0.00102381
0.00102373
0.00102366
0.00102358
0.00102351
0.00102343
0.00102336
0.00102328
0.00102321
0.00102313
0.00102306
0.00102299
0.00102291
0.00102284
0.00102276
0.00102269
0.00102261
0.00102254
0.00102247
0.00102239
0.00102232
0.00102225
0.00102217
0.0010221
0.00102203
0.00102196
0.00102188
0.00102181
0.00102174
0.00102167
0.00102159
0.00102152
0.00102145
0.00102138
0.00102131
0.00102123
0.00102116
0.00102109
0.00102102
0.00102095
0.00102088
0.00102081
0.00102074
0.00102066
0.00102059
0.00102052
0.00102045
0.00102038
0.00102031
0.00102024
0.00102017
0.0010201
0.00102003
0.00101996
0.00101989
0.00101982
0.00101976
0.00101969
0.00101962
0.00101955
0.00101948
0.00101941
0.00101934
0.00101927
0.0010192
0.00101914
0.00101907
0.001019
0.00101893
0.00101886
0.0010188
0.00101873
0.00101866
0.00101859
0.00101853
0.00101846
0.00101839
0.00101833
0.00101826
0.00101819
0.00101813
0.00101806
0.00101799
0.00101793
0.00101786
0.00101779
0.00101773
0.00101766
0.0010176
0.00101753
0.00101747
0.0010174
0.00101734
0.00101727
0.00101721
0.00101714
0.00101708
0.00101701
0.00101695
0.00101688
0.00101682
0.00101675
0.00101669
0.00101663
0.00101656
0.0010165
0.00101643
0.00101637
0.00101631
0.00101624
0.00101618
0.00101612
0.00101605
0.00101599
0.00101593
0.00101587
0.0010158
0.00101574
0.00101568
0.00101562
0.00101555
0.00101549
0.00101543
0.00101537
0.00101531
0.00101524
0.00101518
0.00101512
0.00101506
0.001015
0.00101494
0.00101488
0.00101482
0.00101475
0.00101469
0.00101463
0.00101457
0.00101451
0.00101445
0.00101439
0.00101433
0.00101427
0.00101421
0.00101415
0.00101409
0.00101403
0.00101397
0.00101392
0.00101386
0.0010138
0.00101374
0.00101368
0.00101362
0.00101356
0.0010135
0.00101345
0.00101339
0.00101333
0.00101327
0.00101321
0.00101316
0.0010131
0.00101304
0.00101298
0.00101292
0.00101287
0.00101281
0.00101275
0.0010127
0.00101264
0.00101258
0.00101253
0.00101247
0.00101241
0.00101236
0.0010123
0.00101224
0.00101219
0.00101213
0.00101208
0.00101202
0.00101197
0.00101191
0.00101185
0.0010118
0.00101174
0.00101169
0.00101163
0.00101158
0.00101152
0.00101147
0.00101141
0.00101136
0.00101131
0.00101125
0.0010112
0.00101114
0.00101109
0.00101104
0.00101098
0.00101093
0.00101088
0.00101082
0.00101077
0.00101072
0.00101066
0.00101061
0.00101056
0.0010105
0.00101045
0.0010104
0.00101035
0.00101029
0.00101024
0.00101019
0.00101014
0.00101009
0.00101003
0.00100998
0.00100993
0.00100988
0.00100983
0.00100978
0.00100973
0.00100967
0.00100962
0.00100957
0.00100952
0.00100947
0.00100942
0.00100937
0.00100932
0.00100927
0.00100922
0.00100917
0.00100912
0.00100907
0.00100902
0.00100897
0.00100892
0.00100887
0.00100882
0.00100877
0.00100872
0.00100868
0.00100863
0.00100858
0.00100853
0.00100848
0.00100843
0.00100838
0.00100834
0.00100829
0.00100824
0.00100819
0.00100814
0.0010081
0.00100805
0.001008
0.00100795
0.00100791
0.00100786
0.00100781
0.00100776
0.00100772
0.00100767
0.00100762
0.00100758
0.00100753
0.00100748
0.00100744
0.00100739
0.00100735
0.0010073
0.00100725
0.00100721
0.00100716
0.00100712
0.00100707
0.00100703
0.00100698
0.00100694
0.00100689
0.00100685
0.0010068
0.00100676
0.00100671
0.00100667
0.00100662
0.00100658
0.00100653
0.00100649
0.00100645
0.0010064
0.00100636
0.00100631
0.00100627
0.00100623
0.00100618
0.00100614
0.0010061
0.00100605
0.00100601
0.00100597
0.00100592
0.00100588
0.00100584
0.0010058
0.00100575
0.00100571
0.00100567
0.00100563
0.00100559
0.00100554
0.0010055
0.00100546
0.00100542
0.00100538
0.00100534
0.00100529
0.00100525
0.00100521
0.00100517
0.00100513
0.00100509
0.00100505
0.00100501
0.00100497
0.00100493
0.00100489
0.00100485
0.00100481
0.00100477
0.00100473
0.00100469
0.00100465
0.00100461
0.00100457
0.00100453
0.00100449
0.00100445
0.00100441
0.00100437
0.00100433
0.00100429
0.00100426
0.00100422
0.00100418
0.00100414
0.0010041
0.00100406
0.00100403
0.00100399
0.00100395
0.00100391
0.00100387
0.00100384
0.0010038
0.00100376
0.00100372
0.00100369
0.00100365
0.00100361
0.00100358
0.00100354
0.0010035
0.00100347
0.00100343
0.00100339
0.00100336
0.00100332
0.00100329
0.00100325
0.00100321
0.00100318
0.00100314
0.00100311
0.00100307
0.00100304
0.001003
0.00100296
0.00100293
0.00100289
0.00100286
0.00100283
0.00100279
0.00100276
0.00100272
0.00100269
0.00100265
0.00100262
0.00100258
0.00100255
0.00100252
0.00100248
0.00100245
0.00100242
0.00100238
0.00100235
0.00100231
0.00100228
0.00100225
0.00100222
0.00100218
0.00100215
0.00100212
0.00100208
0.00100205
0.00100202
0.00100199
0.00100195
0.00100192
0.00100189
0.00100186
0.00100183
0.0010018
0.00100176
0.00100173
0.0010017
0.00100167
0.00100164
0.00100161
0.00100158
0.00100154
0.00100151
0.00100148
0.00100145
0.00100142
0.00100139
0.00100136
0.00100133
0.0010013
0.00100127
0.00100124
0.00100121
0.00100118
0.00100115
0.00100112
0.00100109
0.00100106
0.00100103
0.001001
0.00100097
0.00100095
0.00100092
0.00100089
0.00100086
0.00100083
0.0010008
0.00100077
0.00100075
0.00100072
0.00100069
0.00100066
0.00100063
0.00100061
0.00100058
0.00100055
0.00100052
0.0010005
0.00100047
0.00100044
0.00100041
0.00100039
0.00100036
0.00100033
0.00100031
0.00100028
0.00100025
0.00100023
0.0010002
0.00100017
0.00100015
0.00100012
0.00100009
0.00100007
0.00100004
0.00100002
0.000999992
0.000999966
0.000999941
0.000999916
0.00099989
0.000999865
0.00099984
0.000999815
0.00099979
0.000999766
0.000999741
0.000999717
0.000999692
0.000999668
0.000999643
0.000999619
0.000999595
0.000999571
0.000999547
0.000999524
0.0009995
0.000999476
0.000999453
0.00099943
0.000999406
0.000999383
0.00099936
0.000999337
0.000999314
0.000999291
0.000999268
0.000999246
0.000999223
0.000999201
0.000999179
0.000999156
0.000999134
0.000999112
0.00099909
0.000999068
0.000999047
0.000999025
0.000999003
0.000998982
0.000998961
0.000998939
0.000998918
0.000998897
0.000998876
0.000998855
0.000998834
0.000998814
0.000998793
0.000998772
0.000998752
0.000998732
0.000998712
0.000998691
0.000998671
0.000998651
0.000998632
0.000998612
0.000998592
0.000998573
0.000998553
0.000998534
0.000998515
0.000998495
0.000998476
0.000998457
0.000998438
0.00099842
0.000998401
0.000998382
0.000998364
0.000998346
0.000998327
0.000998309
0.000998291
0.000998273
0.000998255
0.000998237
0.000998219
0.000998202
0.000998184
0.000998167
0.000998149
0.000998132
0.000998115
0.000998098
0.000998081
0.000998064
0.000998047
0.000998031
0.000998014
0.000997997
0.000997981
0.000997965
0.000997948
0.000997932
0.000997916
0.0009979
0.000997885
0.000997869
0.000997853
0.000997838
0.000997822
0.000997807
0.000997792
0.000997776
0.000997761
0.000997746
0.000997731
0.000997717
0.000997702
0.000997687
0.000997673
0.000997658
0.000997644
0.00099763
0.000997616
0.000997602
0.000997588
0.000997574
0.00099756
0.000997547
0.000997533
0.000997519
0.000997506
0.000997493
0.00099748
0.000997467
0.000997454
0.000997441
0.000997428
0.000997415
0.000997403
0.00099739
0.000997378
0.000997365
0.000997353
0.000997341
0.000997329
0.000997317
0.000997305
0.000997293
0.000997282
0.00099727
0.000997258
0.000997247
0.000997236
0.000997225
0.000997213
0.000997202
0.000997191
0.000997181
0.00099717
0.000997159
0.000997149
0.000997138
0.000997128
0.000997118
0.000997108
0.000997097
0.000997087
0.000997078
0.000997068
0.000997058
0.000997048
0.000997039
0.00099703
0.00099702
0.000997011
0.000997002
0.000996993
0.000996984
0.000996975
0.000996966
0.000996958
0.000996949
0.000996941
0.000996932
0.000996924
0.000996916
0.000996908
0.0009969
0.000996892
0.000996884
0.000996876
0.000996869
0.000996861
0.000996854
0.000996846
0.000996839
0.000996832
0.000996825
0.000996818
0.000996811
0.000996804
0.000996798
0.000996791
0.000996785
0.000996778
0.000996772
0.000996766
0.00099676
0.000996754
0.000996748
0.000996742
0.000996736
0.00099673
0.000996725
0.000996719
0.000996714
0.000996709
0.000996704
0.000996698
0.000996694
0.000996689
0.000996684
0.000996679
0.000996674
0.00099667
0.000996666
0.000996661
0.000996657
0.000996653
0.000996649
0.000996645
0.000996641
0.000996637
0.000996634
0.00099663
0.000996627
0.000996623
0.00099662
0.000996617
0.000996614
0.00099661
0.000996608
0.000996605
0.000996602
0.000996599
0.000996597
0.000996594
0.000996592
0.00099659
0.000996588
0.000996586
0.000996584
0.000996582
0.00099658
0.000996578
0.000996577
0.000996575
0.000996574
0.000996572
0.000996571
0.00099657
0.000996569
0.000996568
0.000996567
0.000996566
0.000996566
0.000996565
0.000996565
0.000996564
0.000996564
0.000996564
)
;

boundaryField
{
    fixedWall
    {
        type            calculated;
        value           uniform 0;
    }
    outlet
    {
        type            calculated;
        value           uniform 0.000996564;
    }
    defaultFaces
    {
        type            empty;
    }
}


// ************************************************************************* //
