/*--------------------------------*- C++ -*----------------------------------*\
| =========                 |                                                 |
| \\      /  F ield         | OpenFOAM: The Open Source CFD Toolbox           |
|  \\    /   O peration     | Version:  2406                                  |
|   \\  /    A nd           | Website:  www.openfoam.com                      |
|    \\/     M anipulation  |                                                 |
\*---------------------------------------------------------------------------*/
FoamFile
{
    version     2.0;
    format      ascii;
    arch        "LSB;label=32;scalar=64";
    class       volScalarField;
    location    "1.4";
    object      Qdot;
}
// * * * * * * * * * * * * * * * * * * * * * * * * * * * * * * * * * * * * * //

dimensions      [1 -1 -3 0 0 0 0];

internalField   nonuniform List<scalar> 
1000
(
3.0285e-08
5.49251e-08
2.12005e-06
3.30046e-05
0.000248708
0.00117233
0.00400891
0.0108886
0.0249016
0.0498668
0.0895682
0.148312
0.229215
0.334363
0.464466
0.618835
0.795509
0.991508
1.20315
1.42639
1.65715
1.89159
2.1263
2.35842
2.58567
2.80641
3.01952
3.22439
3.4208
3.60886
3.78891
3.96017
4.12406
4.28355
4.43722
4.58571
4.72962
4.86949
5.00583
5.13908
5.26963
5.39782
5.52397
5.64834
5.77117
5.89268
6.01308
6.13253
6.2512
6.36927
6.4869
6.60325
6.7189
6.83661
6.95429
7.0721
7.19021
7.30879
7.42799
7.54794
7.66879
7.79067
7.91373
8.03809
8.16389
8.29127
8.42034
8.55125
8.68412
8.81908
8.95626
9.0958
9.23782
9.38246
9.52985
9.68013
9.83344
9.98992
10.1497
10.313
10.4799
10.6505
10.8251
11.0038
11.1868
11.3742
11.5662
11.763
11.9649
12.1719
12.3844
12.6024
12.8263
13.0562
13.2924
13.5352
13.7847
14.0412
14.3051
14.5765
14.8558
15.1432
15.4392
15.744
16.0579
16.3814
16.7148
17.0585
17.4129
17.7786
18.1558
18.5452
18.9471
19.3622
19.791
20.2341
20.692
21.1654
21.655
22.1615
22.6855
23.2279
23.7895
24.371
24.9735
25.5978
26.2449
26.916
27.6122
28.33
29.0666
29.8457
30.6551
31.4965
32.3719
33.2832
34.2324
35.2218
36.2538
37.3309
38.456
39.632
40.8623
42.1504
43.5002
44.9158
46.4017
47.9627
49.6042
51.3317
53.1513
55.0697
57.094
59.2319
61.4919
63.8831
66.4042
69.0426
71.8958
74.9273
78.1518
81.5856
85.2472
89.1573
93.339
97.8182
102.624
107.788
113.346
119.337
125.808
132.806
140.388
148.616
157.562
167.306
177.94
189.571
202.324
216.346
231.64
248.402
267.328
288.419
312.051
338.68
368.861
403.271
442.737
488.278
541.146
602.284
673.646
759.753
862.6
986.611
1137.79
1324.4
1558.07
1855.45
2240.86
2750.72
3441.3
4403.66
5794.24
7900.4
11287
17145.7
28214.2
51457.4
106683
257236
740184
2.49558e+06
9.68082e+06
5.88125e+07
689117
2352.28
12.9025
0.258462
0.0200462
0.00433817
0.00181775
0.00112471
0.000866647
0.000753207
0.000698698
0.000671265
0.00065699
0.00064951
0.000645577
0.000643517
0.000642453
0.000641882
0.000641465
0.000641357
0.000641261
0.000641211
0.000641259
0.000641171
0.00064124
0.000641163
0.000641162
0.000641163
0.000641238
0.000641165
0.000641241
0.000641243
0.000641244
0.000641246
0.000641173
0.000641175
0.000641176
0.000641178
0.000641255
0.000641256
0.000641258
0.000641185
0.000641261
0.000641188
0.00064119
0.000641191
0.000641193
0.000641195
0.000641197
0.000641273
0.0006412
0.000641201
0.000641203
0.000641204
0.00064128
0.000641208
0.00064121
0.000641212
0.000641213
0.000641215
0.000641292
0.000641293
0.00064122
0.000641297
0.000641298
0.0006413
0.000641227
0.000641229
0.000641305
0.000641232
0.000641234
0.00064131
0.000641312
0.000641239
0.000641241
0.000641242
0.000641244
0.000641246
0.000641247
0.000641324
0.000641251
0.000641253
0.000641254
0.000641256
0.000641257
0.000641334
0.000641335
0.000641263
0.000641264
0.000641266
0.000641268
0.000641344
0.000641346
0.000641347
0.000641274
0.000641276
0.000641278
0.000641279
0.000641281
0.000641208
0.000641285
0.000641212
0.000641288
0.00064129
0.000641291
0.000641293
0.000641294
0.000641296
0.000641298
0.0006413
0.000641301
0.000641303
0.00064123
0.000641231
0.000641307
0.000641235
0.000641237
0.000641313
0.000641239
0.000641241
0.000641243
0.000641245
0.000641246
0.000641248
0.000641324
0.000641251
0.000641328
0.00064133
0.000641256
0.000641333
0.00064126
0.000641336
0.000641263
0.000641265
0.000641266
0.000641343
0.000641344
0.000641271
0.000641273
0.000641275
0.000641276
0.000641352
0.000641354
0.000641281
0.000641357
0.000641284
0.000641286
0.000641363
0.000641364
0.000641291
0.000641293
0.000641369
0.00064137
0.000641373
0.000641374
0.000641301
0.000641377
0.000641379
0.00064138
0.000641382
0.000641309
0.000641385
0.000641387
0.000641389
0.000641315
0.000641392
0.000641319
0.00064132
0.000641397
0.000641324
0.0006414
0.000641402
0.000641329
0.00064133
0.000641407
0.000641334
0.000641336
0.000641412
0.000641413
0.00064134
0.000641342
0.000641418
0.00064142
0.000641422
0.000641424
0.00064135
0.000641427
0.000641428
0.000641355
0.000641432
0.000641359
0.00064136
0.000641437
0.000641438
0.000641365
0.000641367
0.000641443
0.00064137
0.000641372
0.000641448
0.000641375
0.000641451
0.000641453
0.00064138
0.000641456
0.000641458
0.00064146
0.000641461
0.000641389
0.00064139
0.000641467
0.000641393
0.000641395
0.000641397
0.000641473
0.0006414
0.000641401
0.000641478
0.00064148
0.000641406
0.000641408
0.000641485
0.000641412
0.000641413
0.000641489
0.000641417
0.000641418
0.000641495
0.000641422
0.000641423
0.000641425
0.000641427
0.000641503
0.000641505
0.000641506
0.000641433
0.000641435
0.000641512
0.000641514
0.000641516
0.000641517
0.000641519
0.000641445
0.000641522
0.000641449
0.000641525
0.000641452
0.000641529
0.000641456
0.000641532
0.000641533
0.000641535
0.000641537
0.000641539
0.000641465
0.000641467
0.000641544
0.000641545
0.000641473
0.000641549
0.000641551
0.000641478
0.000641554
0.000641556
0.000641483
0.000641485
0.000641487
0.000641488
0.000641489
0.000641492
0.000641568
0.000641495
0.000641497
0.000641573
0.000641575
0.000641576
0.000641503
0.00064158
0.000641582
0.000641508
0.000641585
0.000641512
0.000641588
0.00064159
0.000641592
0.000641594
0.000641521
0.000641522
0.000641599
0.000641526
0.000641527
0.000641529
0.000641606
0.000641533
0.000641609
0.000641537
0.000641613
0.000641615
0.000641616
0.000641543
0.000641545
0.000641547
0.000641548
0.000641625
0.000641627
0.000641628
0.00064163
0.000641557
0.000641559
0.000641561
0.000641562
0.000641564
0.000641566
0.000641567
0.00064157
0.000641646
0.000641573
0.000641649
0.000641651
0.000641578
0.000641654
0.000641656
0.000641658
0.00064166
0.000641587
0.000641589
0.000641666
0.000641667
0.000641669
0.000641596
0.000641672
0.000641674
0.000641676
0.000641603
0.000641604
0.000641681
0.000641683
0.00064161
0.000641612
0.000641688
0.00064169
0.000641692
0.000641619
0.000641695
0.000641623
0.000641699
0.000641701
0.000641702
0.000641704
0.000641631
0.000641633
0.000641635
0.000641637
0.000641638
0.000641715
0.000641642
0.000641718
0.00064172
0.000641722
0.000641724
0.000641651
0.000641727
0.000641654
0.000641731
0.000641733
0.00064166
0.000641662
0.000641663
0.00064174
0.000641742
0.000641743
0.00064167
0.000641672
0.000641749
0.000641676
0.000641752
0.000641754
0.000641755
0.000641683
0.000641759
0.000641761
0.000641763
0.000641765
0.000641766
0.000641768
0.00064177
0.000641698
0.000641699
0.000641701
0.000641777
0.000641779
0.000641706
0.000641783
0.000641785
0.000641712
0.000641788
0.000641715
0.000641717
0.000641794
0.000641721
0.000641722
0.000641799
0.000641726
0.000641728
0.00064173
0.000641806
0.000641733
0.000641735
0.000641737
0.000641813
0.000641815
0.000641817
0.000641819
0.00064182
0.000641822
0.000641825
0.000641752
0.000641828
0.000641755
0.000641757
0.000641833
0.00064176
0.000641762
0.000641764
0.000641841
0.000641767
0.000641769
0.000641771
0.000641848
0.000641775
0.000641851
0.000641853
0.000641855
0.000641782
0.000641784
0.000641861
0.000641788
0.000641864
0.000641791
0.000641793
0.000641795
0.000641871
0.000641799
0.000641875
0.000641802
0.000641879
0.000641806
0.000641882
0.000641809
0.000641886
0.000641888
0.000641889
0.000641816
0.000641892
0.000641895
0.000641896
0.000641898
0.000641825
0.000641902
0.000641904
0.000641831
0.000641833
0.00064191
0.000641911
0.000641838
0.000641915
0.000641917
0.000641844
0.000641846
0.000641922
0.000641849
0.000641926
0.000641928
0.000641929
0.000641931
0.000641858
0.000641935
0.000641937
0.000641864
0.00064194
0.000641867
0.000641869
0.000641871
0.000641873
0.000641875
0.000641952
0.000641879
0.000641955
0.000641957
0.000641884
0.000641961
0.000641888
0.000641889
0.000641966
0.000641893
0.00064197
0.000641897
0.000641899
0.000641976
0.000641903
0.000641905
0.000641906
0.000641908
0.00064191
0.000641986
0.000641913
0.000641915
0.000641992
0.000641993
0.000641921
0.000641923
0.000642
0.000642001
0.000642003
0.000642005
0.000641932
0.000642008
0.000641936
0.000642012
0.000642014
0.000642016
0.000642018
0.000641944
0.000641947
0.000641948
0.00064195
0.000642027
0.000641954
0.000641956
0.000642032
0.000642034
0.000641961
0.000642038
0.000641965
0.000642042
0.000641968
0.000642046
0.000642047
0.000641974
0.000642051
0.000641978
0.00064198
0.000642056
0.000642058
0.000641985
0.000641987
0.000641914
0.000641992
0.000641993
0.00064192
0.000641997
0.000641998
0.000641925
0.000642002
0.000641929
0.000642006
0.000642008
0.000641935
0.000641937
0.000642013
0.000642015
0.000642018
0.000641944
0.000642021
0.000642022
0.00064195
0.000642026
0.000641954
0.000642031
0.000642032
0.000642034
0.000641962
0.000641963
0.00064204
0.000642041
0.000642044
0.00064197
0.000642048
0.000642049
0.000642051
0.000641978
0.00064198
0.000642057
0.000641984
0.00064206
0.000642062
0.000641989
0.000642066
0.000642068
0.000641995
0.000641997
0.000642074
0.000642075
0.000642077
0.000642079
0.000642006
0.000642008
0.00064201
0.000642011
0.000642014
0.000642016
0.000642018
0.00064202
0.000642021
0.000642023
0.000642025
0.000642102
0.000642104
0.000642105
0.000642033
0.000642109
0.000642036
0.000642038
0.000642115
0.000642042
0.000642119
0.000642046
0.000642123
0.000642125
0.000642126
0.000642128
0.000642131
0.000642132
0.000642134
0.000642136
0.000642063
0.00064214
0.000642141
0.000642144
0.000642071
0.000642147
0.000642074
0.000642151
0.000642153
0.00064208
0.000642082
0.000642159
0.000642087
0.000642162
0.00064209
0.000642167
0.000642168
0.000642096
0.000642173
0.000642175
0.000642176
0.000642178
0.00064218
0.000642182
0.000642184
0.000642186
0.000642188
0.000642115
0.000642191
0.000642194
0.000642195
0.000642198
0.0006422
0.000642127
0.000642128
0.000642205
0.000642132
0.000642209
0.000642211
0.000642138
0.00064214
0.000642142
0.000642218
0.000642146
0.000642148
0.000642224
0.000642226
0.000642229
0.00064223
0.000642158
0.000642234
0.000642161
0.000642238
0.00064224
0.000642242
0.000642244
0.000642171
0.000642173
0.00064225
0.000642177
0.000642179
0.000642181
0.000642183
0.000642185
0.000642261
0.000642263
0.000642265
0.000642193
0.000642269
0.000642271
0.000642273
0.000642275
0.000642277
0.00064228
0.000642281
0.000642283
0.000642285
0.000642287
0.000642289
0.000642216
0.000642293
0.000642295
0.000642296
0.000642224
0.000642225
0.000642303
0.000642304
0.000642232
0.000642309
0.00064231
0.000642237
0.000642314
0.000642241
0.000642243
0.00064232
0.000642248
0.000642249
0.000642252
0.000642253
0.00064233
0.000642257
0.000642259
0.000642261
0.000642263
0.00064234
0.000642342
0.000642344
0.000642346
0.000642273
0.00064235
0.000642351
0.000642279
0.000642356
0.000642358
0.00064236
0.000642362
0.000642364
0.000642366
0.000642368
0.000642295
0.000642372
0.000642374
0.000642376
0.000642303
0.00064238
0.000642382
0.000642384
0.000642386
0.000642388
0.00064239
0.000642317
0.000642393
0.000642396
0.000642323
0.0006424
0.000642402
0.000642404
0.000642406
0.000642407
0.00064241
0.000642337
0.000642414
0.000642341
0.000642417
0.000642419
0.000642347
0.000642423
0.000642426
0.000642428
0.00064243
0.000642431
0.000642359
0.000642435
0.000642437
0.000642439
0.000642441
0.000642444
0.000642445
0.000642372
)
;

boundaryField
{
    fixedWall
    {
        type            calculated;
        value           uniform 0;
    }
    outlet
    {
        type            calculated;
        value           uniform 0;
    }
    defaultFaces
    {
        type            empty;
    }
}


// ************************************************************************* //
