/*--------------------------------*- C++ -*----------------------------------*\
| =========                 |                                                 |
| \\      /  F ield         | OpenFOAM: The Open Source CFD Toolbox           |
|  \\    /   O peration     | Version:  2406                                  |
|   \\  /    A nd           | Website:  www.openfoam.com                      |
|    \\/     M anipulation  |                                                 |
\*---------------------------------------------------------------------------*/
FoamFile
{
    version     2.0;
    format      ascii;
    arch        "LSB;label=32;scalar=64";
    class       volVectorField;
    location    "1.4";
    object      U;
}
// * * * * * * * * * * * * * * * * * * * * * * * * * * * * * * * * * * * * * //

dimensions      [0 1 -1 0 0 0 0];

internalField   nonuniform List<vector> 
1000
(
(-3.43293e-05 0 0)
(-0.000131708 0 0)
(-0.000286253 0 0)
(-0.000471165 0 0)
(-0.000673285 0 0)
(-0.0008859 0 0)
(-0.00110491 0 0)
(-0.0013273 0 0)
(-0.00155145 0 0)
(-0.00177738 0 0)
(-0.00200254 0 0)
(-0.00222219 0 0)
(-0.00243542 0 0)
(-0.00264384 0 0)
(-0.00284781 0 0)
(-0.00304645 0 0)
(-0.00323885 0 0)
(-0.00342463 0 0)
(-0.00360351 0 0)
(-0.00377533 0 0)
(-0.00393995 0 0)
(-0.0040973 0 0)
(-0.00424735 0 0)
(-0.0043901 0 0)
(-0.00452559 0 0)
(-0.00465392 0 0)
(-0.00477517 0 0)
(-0.00488948 0 0)
(-0.004997 0 0)
(-0.00509793 0 0)
(-0.00519242 0 0)
(-0.00528019 0 0)
(-0.0053618 0 0)
(-0.00543835 0 0)
(-0.00550986 0 0)
(-0.00557623 0 0)
(-0.00563759 0 0)
(-0.00569424 0 0)
(-0.00574647 0 0)
(-0.00579455 0 0)
(-0.00583874 0 0)
(-0.0058793 0 0)
(-0.00591649 0 0)
(-0.00595056 0 0)
(-0.00598175 0 0)
(-0.00601028 0 0)
(-0.00603639 0 0)
(-0.00606028 0 0)
(-0.00608216 0 0)
(-0.00610222 0 0)
(-0.00612064 0 0)
(-0.00613758 0 0)
(-0.00615322 0 0)
(-0.0061677 0 0)
(-0.00618115 0 0)
(-0.00619364 0 0)
(-0.00620556 0 0)
(-0.00621637 0 0)
(-0.0062269 0 0)
(-0.00623753 0 0)
(-0.00624651 0 0)
(-0.00625561 0 0)
(-0.0062649 0 0)
(-0.00627336 0 0)
(-0.00628194 0 0)
(-0.00629032 0 0)
(-0.00629854 0 0)
(-0.00630672 0 0)
(-0.00631483 0 0)
(-0.00632291 0 0)
(-0.00633099 0 0)
(-0.00633907 0 0)
(-0.00634716 0 0)
(-0.00635529 0 0)
(-0.00636345 0 0)
(-0.00637166 0 0)
(-0.00637993 0 0)
(-0.0063882 0 0)
(-0.00639658 0 0)
(-0.006405 0 0)
(-0.00641344 0 0)
(-0.00642197 0 0)
(-0.00643053 0 0)
(-0.00643915 0 0)
(-0.00644781 0 0)
(-0.00645652 0 0)
(-0.00646528 0 0)
(-0.00647407 0 0)
(-0.0064829 0 0)
(-0.00649176 0 0)
(-0.00650066 0 0)
(-0.00650959 0 0)
(-0.00651855 0 0)
(-0.00652752 0 0)
(-0.00653652 0 0)
(-0.00654554 0 0)
(-0.00655457 0 0)
(-0.00656362 0 0)
(-0.00657268 0 0)
(-0.00658175 0 0)
(-0.00659082 0 0)
(-0.0065999 0 0)
(-0.00660899 0 0)
(-0.00661808 0 0)
(-0.00662717 0 0)
(-0.00663625 0 0)
(-0.00664534 0 0)
(-0.00665442 0 0)
(-0.0066635 0 0)
(-0.00667258 0 0)
(-0.00668165 0 0)
(-0.0066907 0 0)
(-0.00669976 0 0)
(-0.0067088 0 0)
(-0.00671784 0 0)
(-0.00672686 0 0)
(-0.00673587 0 0)
(-0.00674488 0 0)
(-0.00675387 0 0)
(-0.00676285 0 0)
(-0.00677182 0 0)
(-0.00678078 0 0)
(-0.00678973 0 0)
(-0.00679866 0 0)
(-0.00680759 0 0)
(-0.0068165 0 0)
(-0.00682541 0 0)
(-0.00683431 0 0)
(-0.00684321 0 0)
(-0.0068521 0 0)
(-0.00686099 0 0)
(-0.00686988 0 0)
(-0.00687877 0 0)
(-0.00688766 0 0)
(-0.00689657 0 0)
(-0.00690548 0 0)
(-0.0069144 0 0)
(-0.00692333 0 0)
(-0.00693228 0 0)
(-0.00694126 0 0)
(-0.00695024 0 0)
(-0.00695926 0 0)
(-0.00696829 0 0)
(-0.00697734 0 0)
(-0.00698644 0 0)
(-0.00699553 0 0)
(-0.00700466 0 0)
(-0.0070138 0 0)
(-0.00702297 0 0)
(-0.00703214 0 0)
(-0.00704133 0 0)
(-0.00705053 0 0)
(-0.00705974 0 0)
(-0.00706894 0 0)
(-0.00707815 0 0)
(-0.00708734 0 0)
(-0.00709654 0 0)
(-0.00710572 0 0)
(-0.0071149 0 0)
(-0.00712406 0 0)
(-0.00713322 0 0)
(-0.00714238 0 0)
(-0.00715152 0 0)
(-0.00716067 0 0)
(-0.00716981 0 0)
(-0.00717895 0 0)
(-0.0071881 0 0)
(-0.00719723 0 0)
(-0.00720637 0 0)
(-0.00721546 0 0)
(-0.00722455 0 0)
(-0.00723361 0 0)
(-0.0072426 0 0)
(-0.00725152 0 0)
(-0.00726041 0 0)
(-0.00726912 0 0)
(-0.00727784 0 0)
(-0.00728634 0 0)
(-0.00729479 0 0)
(-0.00730321 0 0)
(-0.00731139 0 0)
(-0.00731963 0 0)
(-0.00732782 0 0)
(-0.00733593 0 0)
(-0.00734421 0 0)
(-0.00735244 0 0)
(-0.00736083 0 0)
(-0.00736946 0 0)
(-0.00737807 0 0)
(-0.00738694 0 0)
(-0.00739585 0 0)
(-0.00740484 0 0)
(-0.00741381 0 0)
(-0.00742259 0 0)
(-0.0074313 0 0)
(-0.00743973 0 0)
(-0.00744776 0 0)
(-0.00745545 0 0)
(-0.00746271 0 0)
(-0.00746948 0 0)
(-0.00747575 0 0)
(-0.00748145 0 0)
(-0.00748644 0 0)
(-0.00749053 0 0)
(-0.00749355 0 0)
(-0.00749532 0 0)
(-0.00749704 0 0)
(-0.00748982 0 0)
(-0.00748007 0 0)
(-0.00744281 0 0)
(-0.00741847 0 0)
(-0.00750391 0 0)
(-0.00741204 0 0)
(-0.00763717 0 0)
(-0.000119884 0 0)
(0.0350146 0 0)
(0.0804921 0 0)
(0.104243 0 0)
(0.113065 0 0)
(0.11634 0 0)
(0.117421 0 0)
(0.117778 0 0)
(0.117875 0 0)
(0.117923 0 0)
(0.117872 0 0)
(0.11792 0 0)
(0.117955 0 0)
(0.117894 0 0)
(0.117807 0 0)
(0.117971 0 0)
(0.117759 0 0)
(0.117918 0 0)
(0.117934 0 0)
(0.117741 0 0)
(0.117857 0 0)
(0.117857 0 0)
(0.117789 0 0)
(0.117792 0 0)
(0.117907 0 0)
(0.117637 0 0)
(0.117833 0 0)
(0.117873 0 0)
(0.117657 0 0)
(0.117785 0 0)
(0.117751 0 0)
(0.117703 0 0)
(0.117814 0 0)
(0.117625 0 0)
(0.117707 0 0)
(0.117866 0 0)
(0.11747 0 0)
(0.117771 0 0)
(0.117756 0 0)
(0.117609 0 0)
(0.117597 0 0)
(0.11769 0 0)
(0.11777 0 0)
(0.117416 0 0)
(0.117774 0 0)
(0.117592 0 0)
(0.117533 0 0)
(0.117779 0 0)
(0.11737 0 0)
(0.117668 0 0)
(0.117648 0 0)
(0.117507 0 0)
(0.117495 0 0)
(0.117587 0 0)
(0.117674 0 0)
(0.117316 0 0)
(0.117606 0 0)
(0.117642 0 0)
(0.117287 0 0)
(0.117606 0 0)
(0.117552 0 0)
(0.117419 0 0)
(0.117405 0 0)
(0.11752 0 0)
(0.117535 0 0)
(0.117332 0 0)
(0.117522 0 0)
(0.117335 0 0)
(0.117464 0 0)
(0.117539 0 0)
(0.117189 0 0)
(0.117502 0 0)
(0.117461 0 0)
(0.117279 0 0)
(0.117406 0 0)
(0.11737 0 0)
(0.117339 0 0)
(0.117386 0 0)
(0.117277 0 0)
(0.117363 0 0)
(0.117362 0 0)
(0.117295 0 0)
(0.117229 0 0)
(0.117356 0 0)
(0.117359 0 0)
(0.117187 0 0)
(0.117319 0 0)
(0.117254 0 0)
(0.117294 0 0)
(0.117152 0 0)
(0.117307 0 0)
(0.117301 0 0)
(0.11712 0 0)
(0.117299 0 0)
(0.11711 0 0)
(0.117262 0 0)
(0.117271 0 0)
(0.11707 0 0)
(0.117262 0 0)
(0.117073 0 0)
(0.117225 0 0)
(0.117216 0 0)
(0.117058 0 0)
(0.117177 0 0)
(0.117111 0 0)
(0.117172 0 0)
(0.11704 0 0)
(0.117147 0 0)
(0.117161 0 0)
(0.117002 0 0)
(0.117146 0 0)
(0.11703 0 0)
(0.117073 0 0)
(0.117157 0 0)
(0.116914 0 0)
(0.117107 0 0)
(0.11711 0 0)
(0.116925 0 0)
(0.117107 0 0)
(0.116917 0 0)
(0.117054 0 0)
(0.117089 0 0)
(0.11687 0 0)
(0.117067 0 0)
(0.116898 0 0)
(0.117014 0 0)
(0.117015 0 0)
(0.11691 0 0)
(0.116885 0 0)
(0.117008 0 0)
(0.116979 0 0)
(0.116875 0 0)
(0.116856 0 0)
(0.116958 0 0)
(0.117017 0 0)
(0.1167 0 0)
(0.116973 0 0)
(0.116964 0 0)
(0.116765 0 0)
(0.116923 0 0)
(0.116766 0 0)
(0.116923 0 0)
(0.116897 0 0)
(0.116761 0 0)
(0.116831 0 0)
(0.116837 0 0)
(0.116851 0 0)
(0.116765 0 0)
(0.116809 0 0)
(0.116805 0 0)
(0.11676 0 0)
(0.116833 0 0)
(0.116679 0 0)
(0.116812 0 0)
(0.116825 0 0)
(0.116675 0 0)
(0.116707 0 0)
(0.116773 0 0)
(0.116816 0 0)
(0.116587 0 0)
(0.116752 0 0)
(0.116791 0 0)
(0.116558 0 0)
(0.116794 0 0)
(0.116656 0 0)
(0.116662 0 0)
(0.116757 0 0)
(0.116567 0 0)
(0.116689 0 0)
(0.116656 0 0)
(0.116629 0 0)
(0.116664 0 0)
(0.116587 0 0)
(0.116643 0 0)
(0.116658 0 0)
(0.116553 0 0)
(0.116623 0 0)
(0.116594 0 0)
(0.11659 0 0)
(0.116572 0 0)
(0.11658 0 0)
(0.116577 0 0)
(0.11654 0 0)
(0.116583 0 0)
(0.116504 0 0)
(0.116601 0 0)
(0.116473 0 0)
(0.116523 0 0)
(0.116658 0 0)
(0.116323 0 0)
(0.116578 0 0)
(0.116577 0 0)
(0.116405 0 0)
(0.116504 0 0)
(0.11651 0 0)
(0.116383 0 0)
(0.116541 0 0)
(0.116504 0 0)
(0.116376 0 0)
(0.11645 0 0)
(0.116445 0 0)
(0.116503 0 0)
(0.116301 0 0)
(0.116516 0 0)
(0.116385 0 0)
(0.116377 0 0)
(0.116525 0 0)
(0.116202 0 0)
(0.116492 0 0)
(0.11644 0 0)
(0.116269 0 0)
(0.116398 0 0)
(0.1164 0 0)
(0.116269 0 0)
(0.116397 0 0)
(0.116436 0 0)
(0.116148 0 0)
(0.116441 0 0)
(0.116359 0 0)
(0.116259 0 0)
(0.116283 0 0)
(0.116324 0 0)
(0.116402 0 0)
(0.116122 0 0)
(0.116348 0 0)
(0.116384 0 0)
(0.116106 0 0)
(0.116349 0 0)
(0.116296 0 0)
(0.116208 0 0)
(0.116192 0 0)
(0.116304 0 0)
(0.116284 0 0)
(0.116142 0 0)
(0.116257 0 0)
(0.116205 0 0)
(0.116221 0 0)
(0.116207 0 0)
(0.116187 0 0)
(0.116211 0 0)
(0.116094 0 0)
(0.116255 0 0)
(0.116231 0 0)
(0.116063 0 0)
(0.116224 0 0)
(0.11608 0 0)
(0.116196 0 0)
(0.116234 0 0)
(0.115954 0 0)
(0.116238 0 0)
(0.11616 0 0)
(0.116052 0 0)
(0.11609 0 0)
(0.116175 0 0)
(0.116069 0 0)
(0.116086 0 0)
(0.116191 0 0)
(0.115894 0 0)
(0.116191 0 0)
(0.116102 0 0)
(0.11601 0 0)
(0.116024 0 0)
(0.116086 0 0)
(0.116145 0 0)
(0.115875 0 0)
(0.116116 0 0)
(0.116089 0 0)
(0.115923 0 0)
(0.116088 0 0)
(0.115931 0 0)
(0.116061 0 0)
(0.11605 0 0)
(0.115934 0 0)
(0.115944 0 0)
(0.116048 0 0)
(0.116029 0 0)
(0.11588 0 0)
(0.116004 0 0)
(0.115948 0 0)
(0.115979 0 0)
(0.115879 0 0)
(0.11602 0 0)
(0.115943 0 0)
(0.115905 0 0)
(0.115902 0 0)
(0.115948 0 0)
(0.115959 0 0)
(0.115861 0 0)
(0.11587 0 0)
(0.11593 0 0)
(0.115995 0 0)
(0.115707 0 0)
(0.115972 0 0)
(0.115941 0 0)
(0.115785 0 0)
(0.115883 0 0)
(0.115886 0 0)
(0.115781 0 0)
(0.115918 0 0)
(0.115892 0 0)
(0.115752 0 0)
(0.115864 0 0)
(0.115816 0 0)
(0.11584 0 0)
(0.115824 0 0)
(0.115792 0 0)
(0.115839 0 0)
(0.115694 0 0)
(0.115873 0 0)
(0.115862 0 0)
(0.115763 0 0)
(0.115638 0 0)
(0.115884 0 0)
(0.115817 0 0)
(0.115671 0 0)
(0.115812 0 0)
(0.115699 0 0)
(0.115808 0 0)
(0.115705 0 0)
(0.115747 0 0)
(0.115798 0 0)
(0.115641 0 0)
(0.115752 0 0)
(0.11572 0 0)
(0.115712 0 0)
(0.115708 0 0)
(0.115701 0 0)
(0.1157 0 0)
(0.115681 0 0)
(0.115707 0 0)
(0.115658 0 0)
(0.115678 0 0)
(0.115739 0 0)
(0.115546 0 0)
(0.115729 0 0)
(0.11572 0 0)
(0.115563 0 0)
(0.115681 0 0)
(0.115627 0 0)
(0.11565 0 0)
(0.115611 0 0)
(0.115648 0 0)
(0.115636 0 0)
(0.115606 0 0)
(0.115554 0 0)
(0.115676 0 0)
(0.115646 0 0)
(0.115511 0 0)
(0.115625 0 0)
(0.115591 0 0)
(0.115579 0 0)
(0.115583 0 0)
(0.115575 0 0)
(0.115558 0 0)
(0.115588 0 0)
(0.115504 0 0)
(0.115617 0 0)
(0.11551 0 0)
(0.115568 0 0)
(0.115591 0 0)
(0.115456 0 0)
(0.115549 0 0)
(0.115525 0 0)
(0.115569 0 0)
(0.115427 0 0)
(0.115574 0 0)
(0.115557 0 0)
(0.115412 0 0)
(0.115546 0 0)
(0.115465 0 0)
(0.1155 0 0)
(0.11555 0 0)
(0.115354 0 0)
(0.11554 0 0)
(0.115538 0 0)
(0.115368 0 0)
(0.115504 0 0)
(0.115469 0 0)
(0.115432 0 0)
(0.115434 0 0)
(0.115469 0 0)
(0.115479 0 0)
(0.115321 0 0)
(0.115519 0 0)
(0.115456 0 0)
(0.115352 0 0)
(0.11542 0 0)
(0.115443 0 0)
(0.115425 0 0)
(0.115379 0 0)
(0.115348 0 0)
(0.11547 0 0)
(0.115415 0 0)
(0.115333 0 0)
(0.115349 0 0)
(0.11542 0 0)
(0.115443 0 0)
(0.115245 0 0)
(0.11545 0 0)
(0.115315 0 0)
(0.115381 0 0)
(0.11541 0 0)
(0.115251 0 0)
(0.1154 0 0)
(0.115274 0 0)
(0.115404 0 0)
(0.115366 0 0)
(0.11525 0 0)
(0.115352 0 0)
(0.115309 0 0)
(0.115358 0 0)
(0.115222 0 0)
(0.115369 0 0)
(0.115371 0 0)
(0.115138 0 0)
(0.115396 0 0)
(0.115324 0 0)
(0.115217 0 0)
(0.11529 0 0)
(0.115312 0 0)
(0.115224 0 0)
(0.11531 0 0)
(0.115283 0 0)
(0.115238 0 0)
(0.115243 0 0)
(0.115282 0 0)
(0.115269 0 0)
(0.115217 0 0)
(0.115222 0 0)
(0.115274 0 0)
(0.115266 0 0)
(0.115178 0 0)
(0.115197 0 0)
(0.115272 0 0)
(0.115273 0 0)
(0.115127 0 0)
(0.115233 0 0)
(0.115251 0 0)
(0.11511 0 0)
(0.115268 0 0)
(0.115266 0 0)
(0.115036 0 0)
(0.115285 0 0)
(0.115219 0 0)
(0.115109 0 0)
(0.115187 0 0)
(0.115198 0 0)
(0.115191 0 0)
(0.115131 0 0)
(0.115163 0 0)
(0.115177 0 0)
(0.115089 0 0)
(0.115229 0 0)
(0.115179 0 0)
(0.115067 0 0)
(0.11516 0 0)
(0.115145 0 0)
(0.115153 0 0)
(0.115104 0 0)
(0.115128 0 0)
(0.115158 0 0)
(0.115033 0 0)
(0.115191 0 0)
(0.115147 0 0)
(0.115039 0 0)
(0.115073 0 0)
(0.115176 0 0)
(0.115126 0 0)
(0.11502 0 0)
(0.11511 0 0)
(0.115104 0 0)
(0.1151 0 0)
(0.115051 0 0)
(0.115091 0 0)
(0.115063 0 0)
(0.115086 0 0)
(0.11504 0 0)
(0.115095 0 0)
(0.115075 0 0)
(0.115031 0 0)
(0.115013 0 0)
(0.115104 0 0)
(0.115112 0 0)
(0.114895 0 0)
(0.115127 0 0)
(0.115091 0 0)
(0.11489 0 0)
(0.115139 0 0)
(0.115011 0 0)
(0.115025 0 0)
(0.115017 0 0)
(0.11501 0 0)
(0.115089 0 0)
(0.114858 0 0)
(0.115114 0 0)
(0.115043 0 0)
(0.114923 0 0)
(0.115024 0 0)
(0.114992 0 0)
(0.114996 0 0)
(0.114973 0 0)
(0.115018 0 0)
(0.114987 0 0)
(0.114954 0 0)
(0.114988 0 0)
(0.114978 0 0)
(0.114968 0 0)
(0.11497 0 0)
(0.114957 0 0)
(0.114972 0 0)
(0.114955 0 0)
(0.11495 0 0)
(0.114992 0 0)
(0.114862 0 0)
(0.115019 0 0)
(0.114996 0 0)
(0.11484 0 0)
(0.114987 0 0)
(0.114891 0 0)
(0.11497 0 0)
(0.114978 0 0)
(0.114836 0 0)
(0.114967 0 0)
(0.11495 0 0)
(0.114865 0 0)
(0.114936 0 0)
(0.114943 0 0)
(0.114838 0 0)
(0.114963 0 0)
(0.114935 0 0)
(0.114834 0 0)
(0.11493 0 0)
(0.114881 0 0)
(0.114899 0 0)
(0.114934 0 0)
(0.114789 0 0)
(0.114944 0 0)
(0.114943 0 0)
(0.114772 0 0)
(0.11494 0 0)
(0.114882 0 0)
(0.114844 0 0)
(0.114827 0 0)
(0.114938 0 0)
(0.11489 0 0)
(0.114785 0 0)
(0.11488 0 0)
(0.11486 0 0)
(0.114874 0 0)
(0.114803 0 0)
(0.114896 0 0)
(0.114802 0 0)
(0.114888 0 0)
(0.114867 0 0)
(0.114773 0 0)
(0.114816 0 0)
(0.114875 0 0)
(0.114878 0 0)
(0.114752 0 0)
(0.114849 0 0)
(0.114859 0 0)
(0.114727 0 0)
(0.114891 0 0)
(0.114859 0 0)
(0.114734 0 0)
(0.114808 0 0)
(0.114848 0 0)
(0.114823 0 0)
(0.114768 0 0)
(0.114805 0 0)
(0.11481 0 0)
(0.11474 0 0)
(0.114873 0 0)
(0.114809 0 0)
(0.114732 0 0)
(0.114759 0 0)
(0.114841 0 0)
(0.11483 0 0)
(0.114699 0 0)
(0.114809 0 0)
(0.114768 0 0)
(0.114782 0 0)
(0.114764 0 0)
(0.114783 0 0)
(0.114768 0 0)
(0.114759 0 0)
(0.114714 0 0)
(0.114836 0 0)
(0.114785 0 0)
(0.11468 0 0)
(0.114767 0 0)
(0.114771 0 0)
(0.114769 0 0)
(0.114721 0 0)
(0.114744 0 0)
(0.114755 0 0)
(0.114697 0 0)
(0.114816 0 0)
(0.114706 0 0)
(0.114721 0 0)
(0.114805 0 0)
(0.114635 0 0)
(0.114778 0 0)
(0.114747 0 0)
(0.114698 0 0)
(0.114715 0 0)
(0.114746 0 0)
(0.114657 0 0)
(0.114786 0 0)
(0.114766 0 0)
(0.114615 0 0)
(0.114757 0 0)
(0.114678 0 0)
(0.114737 0 0)
(0.114754 0 0)
(0.114598 0 0)
(0.114782 0 0)
(0.114721 0 0)
(0.114648 0 0)
(0.114663 0 0)
(0.114765 0 0)
(0.114719 0 0)
(0.114623 0 0)
(0.114697 0 0)
(0.114725 0 0)
(0.114646 0 0)
(0.114729 0 0)
(0.114714 0 0)
(0.11462 0 0)
(0.114612 0 0)
(0.114765 0 0)
(0.114745 0 0)
(0.114563 0 0)
(0.114721 0 0)
(0.114699 0 0)
(0.114632 0 0)
(0.114644 0 0)
(0.114709 0 0)
(0.114701 0 0)
(0.114593 0 0)
(0.114673 0 0)
(0.114688 0 0)
(0.114612 0 0)
(0.114715 0 0)
(0.114682 0 0)
(0.114593 0 0)
(0.114596 0 0)
(0.114734 0 0)
(0.114716 0 0)
(0.114522 0 0)
(0.114713 0 0)
(0.114687 0 0)
(0.114571 0 0)
(0.114666 0 0)
(0.114642 0 0)
(0.11464 0 0)
(0.114628 0 0)
(0.11466 0 0)
(0.114634 0 0)
(0.114623 0 0)
(0.114615 0 0)
(0.114672 0 0)
(0.114594 0 0)
(0.114658 0 0)
(0.114676 0 0)
(0.114493 0 0)
(0.114731 0 0)
(0.114608 0 0)
(0.114614 0 0)
(0.114608 0 0)
(0.114639 0 0)
(0.114658 0 0)
(0.114547 0 0)
(0.114625 0 0)
(0.114652 0 0)
(0.114566 0 0)
(0.114654 0 0)
(0.11465 0 0)
(0.114537 0 0)
(0.114637 0 0)
(0.114611 0 0)
(0.114602 0 0)
(0.114609 0 0)
(0.114608 0 0)
(0.114591 0 0)
(0.114617 0 0)
(0.114582 0 0)
(0.114635 0 0)
(0.114551 0 0)
(0.114645 0 0)
(0.114622 0 0)
(0.114533 0 0)
(0.114599 0 0)
(0.114617 0 0)
(0.114644 0 0)
(0.114478 0 0)
(0.114662 0 0)
(0.11464 0 0)
(0.114508 0 0)
(0.114611 0 0)
(0.114619 0 0)
(0.114507 0 0)
(0.114643 0 0)
(0.114649 0 0)
(0.114445 0 0)
(0.114673 0 0)
(0.114624 0 0)
(0.114494 0 0)
(0.114604 0 0)
(0.114614 0 0)
(0.114504 0 0)
(0.114643 0 0)
(0.114618 0 0)
(0.114496 0 0)
(0.114606 0 0)
(0.114571 0 0)
(0.114579 0 0)
(0.114577 0 0)
(0.114563 0 0)
(0.114583 0 0)
(0.11457 0 0)
(0.114565 0 0)
(0.114595 0 0)
(0.114496 0 0)
(0.114626 0 0)
(0.114628 0 0)
(0.114436 0 0)
(0.114658 0 0)
(0.114538 0 0)
(0.114578 0 0)
(0.114613 0 0)
(0.114493 0 0)
(0.114575 0 0)
(0.114581 0 0)
(0.114504 0 0)
(0.114626 0 0)
(0.114608 0 0)
(0.114479 0 0)
(0.114577 0 0)
(0.114567 0 0)
(0.114525 0 0)
(0.114617 0 0)
(0.114562 0 0)
(0.114524 0 0)
(0.114525 0 0)
(0.114613 0 0)
(0.114582 0 0)
(0.114497 0 0)
(0.114535 0 0)
(0.114621 0 0)
(0.114583 0 0)
(0.114486 0 0)
(0.114475 0 0)
(0.114654 0 0)
(0.114644 0 0)
(0.114434 0 0)
(0.11458 0 0)
(0.114611 0 0)
(0.114474 0 0)
(0.114584 0 0)
(0.114553 0 0)
(0.114542 0 0)
(0.11456 0 0)
(0.114543 0 0)
(0.114562 0 0)
(0.114562 0 0)
(0.114532 0 0)
(0.114553 0 0)
(0.114551 0 0)
(0.114535 0 0)
(0.11458 0 0)
(0.114562 0 0)
(0.114511 0 0)
(0.114572 0 0)
(0.114499 0 0)
(0.114604 0 0)
(0.114601 0 0)
(0.114412 0 0)
(0.114639 0 0)
(0.114595 0 0)
(0.114407 0 0)
(0.114658 0 0)
(0.114579 0 0)
(0.114468 0 0)
(0.114576 0 0)
(0.11455 0 0)
)
;

boundaryField
{
    fixedWall
    {
        type            fixedValue;
        value           uniform (0 0 0);
    }
    outlet
    {
        type            pressureInletOutletVelocity;
        value           uniform (0.11455 0 0);
    }
    defaultFaces
    {
        type            empty;
    }
}


// ************************************************************************* //
