/*--------------------------------*- C++ -*----------------------------------*\
| =========                 |                                                 |
| \\      /  F ield         | OpenFOAM: The Open Source CFD Toolbox           |
|  \\    /   O peration     | Version:  2406                                  |
|   \\  /    A nd           | Website:  www.openfoam.com                      |
|    \\/     M anipulation  |                                                 |
\*---------------------------------------------------------------------------*/
FoamFile
{
    version     2.0;
    format      ascii;
    arch        "LSB;label=32;scalar=64";
    class       surfaceScalarField;
    location    "0.8";
    object      phi;
}
// * * * * * * * * * * * * * * * * * * * * * * * * * * * * * * * * * * * * * //

dimensions      [1 0 -1 0 0 0 0];

oriented        oriented;

internalField   nonuniform List<scalar> 
999
(
-1.12073e-06
-2.6401e-06
-4.16274e-06
-5.61337e-06
-6.9781e-06
-8.25813e-06
-9.45835e-06
-1.05841e-05
-1.16404e-05
-1.26315e-05
-1.35611e-05
-1.44323e-05
-1.5248e-05
-1.60105e-05
-1.6722e-05
-1.73845e-05
-1.79998e-05
-1.85696e-05
-1.90955e-05
-1.95793e-05
-2.00226e-05
-2.04269e-05
-2.0794e-05
-2.11255e-05
-2.14232e-05
-2.16889e-05
-2.19243e-05
-2.21313e-05
-2.23119e-05
-2.24674e-05
-2.26005e-05
-2.2713e-05
-2.28065e-05
-2.28829e-05
-2.29439e-05
-2.29913e-05
-2.30267e-05
-2.30516e-05
-2.30675e-05
-2.30758e-05
-2.30776e-05
-2.30741e-05
-2.30663e-05
-2.30551e-05
-2.30413e-05
-2.30256e-05
-2.30085e-05
-2.29905e-05
-2.29722e-05
-2.29537e-05
-2.29354e-05
-2.29175e-05
-2.29001e-05
-2.28834e-05
-2.28674e-05
-2.28521e-05
-2.28377e-05
-2.2824e-05
-2.28111e-05
-2.2799e-05
-2.27875e-05
-2.27767e-05
-2.27665e-05
-2.27569e-05
-2.27478e-05
-2.27391e-05
-2.27309e-05
-2.27229e-05
-2.27153e-05
-2.27079e-05
-2.27008e-05
-2.26937e-05
-2.26868e-05
-2.268e-05
-2.26732e-05
-2.26664e-05
-2.26596e-05
-2.26528e-05
-2.2646e-05
-2.26391e-05
-2.26322e-05
-2.26254e-05
-2.26185e-05
-2.26117e-05
-2.2605e-05
-2.25984e-05
-2.2592e-05
-2.25856e-05
-2.25794e-05
-2.25734e-05
-2.25674e-05
-2.25614e-05
-2.25554e-05
-2.25493e-05
-2.2543e-05
-2.25363e-05
-2.25294e-05
-2.25221e-05
-2.25144e-05
-2.25065e-05
-2.24984e-05
-2.24901e-05
-2.24817e-05
-2.24733e-05
-2.2465e-05
-2.24565e-05
-2.24478e-05
-2.24386e-05
-2.24286e-05
-2.24173e-05
-2.24035e-05
-2.23847e-05
-2.23554e-05
-2.23054e-05
-2.22176e-05
-2.20655e-05
-2.17934e-05
-2.12061e-05
-1.95117e-05
-1.36479e-05
8.29817e-06
0.000116022
0.00026996
0.000440865
0.000598383
0.000717871
0.000796078
0.000842677
0.000868975
0.000883383
0.000891154
0.000895313
0.000897531
0.000898713
0.000899345
0.000899685
0.00089987
0.000899974
0.000900033
0.00090007
0.000900095
0.000900113
0.000900128
0.000900141
0.000900154
0.000900165
0.000900177
0.000900188
0.000900199
0.000900211
0.000900222
0.000900233
0.000900245
0.000900256
0.000900267
0.000900279
0.00090029
0.000900302
0.000900313
0.000900325
0.000900336
0.000900348
0.000900359
0.000900371
0.000900382
0.000900394
0.000900406
0.000900417
0.000900429
0.000900441
0.000900453
0.000900465
0.000900476
0.000900488
0.0009005
0.000900512
0.000900524
0.000900536
0.000900548
0.00090056
0.000900572
0.000900584
0.000900596
0.000900608
0.00090062
0.000900632
0.000900644
0.000900657
0.000900669
0.000900681
0.000900693
0.000900706
0.000900718
0.00090073
0.000900742
0.000900755
0.000900767
0.000900779
0.000900792
0.000900804
0.000900817
0.000900829
0.000900842
0.000900854
0.000900867
0.000900879
0.000900892
0.000900904
0.000900917
0.00090093
0.000900942
0.000900955
0.000900968
0.00090098
0.000900993
0.000901006
0.000901018
0.000901031
0.000901044
0.000901057
0.00090107
0.000901082
0.000901095
0.000901108
0.000901121
0.000901134
0.000901147
0.00090116
0.000901173
0.000901186
0.000901199
0.000901212
0.000901225
0.000901238
0.000901251
0.000901264
0.000901277
0.00090129
0.000901303
0.000901316
0.000901329
0.000901342
0.000901355
0.000901369
0.000901382
0.000901395
0.000901408
0.000901421
0.000901435
0.000901448
0.000901461
0.000901474
0.000901488
0.000901501
0.000901514
0.000901528
0.000901541
0.000901554
0.000901568
0.000901581
0.000901594
0.000901608
0.000901621
0.000901635
0.000901648
0.000901662
0.000901675
0.000901688
0.000901702
0.000901715
0.000901729
0.000901742
0.000901756
0.000901769
0.000901783
0.000901797
0.00090181
0.000901824
0.000901837
0.000901851
0.000901864
0.000901878
0.000901892
0.000901905
0.000901919
0.000901933
0.000901946
0.00090196
0.000901973
0.000901987
0.000902001
0.000902015
0.000902028
0.000902042
0.000902056
0.000902069
0.000902083
0.000902097
0.00090211
0.000902124
0.000902138
0.000902152
0.000902166
0.000902179
0.000902193
0.000902207
0.000902221
0.000902234
0.000902248
0.000902262
0.000902276
0.00090229
0.000902303
0.000902317
0.000902331
0.000902345
0.000902359
0.000902373
0.000902386
0.0009024
0.000902414
0.000902428
0.000902442
0.000902456
0.00090247
0.000902484
0.000902497
0.000902511
0.000902525
0.000902539
0.000902553
0.000902567
0.000902581
0.000902595
0.000902609
0.000902623
0.000902636
0.00090265
0.000902664
0.000902678
0.000902692
0.000902706
0.00090272
0.000902734
0.000902748
0.000902762
0.000902776
0.00090279
0.000902804
0.000902817
0.000902831
0.000902845
0.000902859
0.000902873
0.000902887
0.000902901
0.000902915
0.000902929
0.000902943
0.000902957
0.000902971
0.000902985
0.000902999
0.000903013
0.000903027
0.00090304
0.000903054
0.000903068
0.000903082
0.000903096
0.00090311
0.000903124
0.000903138
0.000903152
0.000903166
0.00090318
0.000903194
0.000903208
0.000903222
0.000903235
0.000903249
0.000903263
0.000903277
0.000903291
0.000903305
0.000903319
0.000903333
0.000903347
0.000903361
0.000903374
0.000903388
0.000903402
0.000903416
0.00090343
0.000903444
0.000903458
0.000903472
0.000903485
0.000903499
0.000903513
0.000903527
0.000903541
0.000903555
0.000903569
0.000903582
0.000903596
0.00090361
0.000903624
0.000903638
0.000903651
0.000903665
0.000903679
0.000903693
0.000903707
0.00090372
0.000903734
0.000903748
0.000903762
0.000903775
0.000903789
0.000903803
0.000903817
0.00090383
0.000903844
0.000903858
0.000903872
0.000903885
0.000903899
0.000903913
0.000903926
0.00090394
0.000903954
0.000903967
0.000903981
0.000903995
0.000904008
0.000904022
0.000904036
0.000904049
0.000904063
0.000904076
0.00090409
0.000904103
0.000904117
0.000904131
0.000904144
0.000904158
0.000904171
0.000904185
0.000904198
0.000904212
0.000904225
0.000904239
0.000904252
0.000904266
0.000904279
0.000904293
0.000904306
0.00090432
0.000904333
0.000904346
0.00090436
0.000904373
0.000904387
0.0009044
0.000904413
0.000904427
0.00090444
0.000904453
0.000904467
0.00090448
0.000904493
0.000904507
0.00090452
0.000904533
0.000904547
0.00090456
0.000904573
0.000904586
0.000904599
0.000904613
0.000904626
0.000904639
0.000904652
0.000904665
0.000904678
0.000904692
0.000904705
0.000904718
0.000904731
0.000904744
0.000904757
0.00090477
0.000904783
0.000904796
0.000904809
0.000904822
0.000904835
0.000904848
0.000904861
0.000904874
0.000904887
0.0009049
0.000904913
0.000904926
0.000904939
0.000904952
0.000904964
0.000904977
0.00090499
0.000905003
0.000905016
0.000905028
0.000905041
0.000905054
0.000905067
0.000905079
0.000905092
0.000905105
0.000905118
0.00090513
0.000905143
0.000905156
0.000905168
0.000905181
0.000905193
0.000905206
0.000905219
0.000905231
0.000905244
0.000905256
0.000905269
0.000905281
0.000905294
0.000905306
0.000905319
0.000905331
0.000905343
0.000905356
0.000905368
0.000905381
0.000905393
0.000905405
0.000905417
0.00090543
0.000905442
0.000905454
0.000905467
0.000905479
0.000905491
0.000905503
0.000905515
0.000905528
0.00090554
0.000905552
0.000905564
0.000905576
0.000905588
0.0009056
0.000905612
0.000905624
0.000905636
0.000905648
0.00090566
0.000905672
0.000905684
0.000905696
0.000905708
0.00090572
0.000905732
0.000905743
0.000905755
0.000905767
0.000905779
0.000905791
0.000905802
0.000905814
0.000905826
0.000905838
0.000905849
0.000905861
0.000905873
0.000905884
0.000905896
0.000905907
0.000905919
0.00090593
0.000905942
0.000905953
0.000905965
0.000905976
0.000905988
0.000905999
0.000906011
0.000906022
0.000906033
0.000906045
0.000906056
0.000906067
0.000906079
0.00090609
0.000906101
0.000906112
0.000906124
0.000906135
0.000906146
0.000906157
0.000906168
0.000906179
0.00090619
0.000906201
0.000906213
0.000906224
0.000906235
0.000906245
0.000906256
0.000906267
0.000906278
0.000906289
0.0009063
0.000906311
0.000906322
0.000906333
0.000906343
0.000906354
0.000906365
0.000906376
0.000906386
0.000906397
0.000906408
0.000906418
0.000906429
0.000906439
0.00090645
0.00090646
0.000906471
0.000906481
0.000906492
0.000906502
0.000906513
0.000906523
0.000906534
0.000906544
0.000906554
0.000906565
0.000906575
0.000906585
0.000906595
0.000906606
0.000906616
0.000906626
0.000906636
0.000906646
0.000906656
0.000906666
0.000906677
0.000906687
0.000906697
0.000906707
0.000906717
0.000906726
0.000906736
0.000906746
0.000906756
0.000906766
0.000906776
0.000906786
0.000906795
0.000906805
0.000906815
0.000906825
0.000906834
0.000906844
0.000906854
0.000906863
0.000906873
0.000906882
0.000906892
0.000906901
0.000906911
0.00090692
0.00090693
0.000906939
0.000906948
0.000906958
0.000906967
0.000906976
0.000906986
0.000906995
0.000907004
0.000907013
0.000907023
0.000907032
0.000907041
0.00090705
0.000907059
0.000907068
0.000907077
0.000907086
0.000907095
0.000907104
0.000907113
0.000907122
0.000907131
0.00090714
0.000907148
0.000907157
0.000907166
0.000907175
0.000907184
0.000907192
0.000907201
0.00090721
0.000907218
0.000907227
0.000907235
0.000907244
0.000907252
0.000907261
0.000907269
0.000907278
0.000907286
0.000907295
0.000907303
0.000907311
0.00090732
0.000907328
0.000907336
0.000907344
0.000907352
0.000907361
0.000907369
0.000907377
0.000907385
0.000907393
0.000907401
0.000907409
0.000907417
0.000907425
0.000907433
0.000907441
0.000907449
0.000907456
0.000907464
0.000907472
0.00090748
0.000907488
0.000907495
0.000907503
0.000907511
0.000907518
0.000907526
0.000907533
0.000907541
0.000907548
0.000907556
0.000907563
0.000907571
0.000907578
0.000907586
0.000907593
0.0009076
0.000907608
0.000907615
0.000907622
0.000907629
0.000907636
0.000907644
0.000907651
0.000907658
0.000907665
0.000907672
0.000907679
0.000907686
0.000907693
0.0009077
0.000907707
0.000907713
0.00090772
0.000907727
0.000907734
0.000907741
0.000907747
0.000907754
0.000907761
0.000907767
0.000907774
0.00090778
0.000907787
0.000907793
0.0009078
0.000907806
0.000907813
0.000907819
0.000907826
0.000907832
0.000907838
0.000907845
0.000907851
0.000907857
0.000907863
0.000907869
0.000907876
0.000907882
0.000907888
0.000907894
0.0009079
0.000907906
0.000907912
0.000907918
0.000907924
0.000907929
0.000907935
0.000907941
0.000907947
0.000907953
0.000907958
0.000907964
0.00090797
0.000907975
0.000907981
0.000907986
0.000907992
0.000907998
0.000908003
0.000908008
0.000908014
0.000908019
0.000908025
0.00090803
0.000908035
0.000908041
0.000908046
0.000908051
0.000908056
0.000908061
0.000908067
0.000908072
0.000908077
0.000908082
0.000908087
0.000908092
0.000908097
0.000908102
0.000908106
0.000908111
0.000908116
0.000908121
0.000908126
0.00090813
0.000908135
0.00090814
0.000908144
0.000908149
0.000908154
0.000908158
0.000908163
0.000908167
0.000908172
0.000908176
0.00090818
0.000908185
0.000908189
0.000908193
0.000908198
0.000908202
0.000908206
0.00090821
0.000908214
0.000908219
0.000908223
0.000908227
0.000908231
0.000908235
0.000908239
0.000908243
0.000908246
0.00090825
0.000908254
0.000908258
0.000908262
0.000908265
0.000908269
0.000908273
0.000908277
0.00090828
0.000908284
0.000908287
0.000908291
0.000908294
0.000908298
0.000908301
0.000908305
0.000908308
0.000908311
0.000908315
0.000908318
0.000908321
0.000908324
0.000908327
0.000908331
0.000908334
0.000908337
0.00090834
0.000908343
0.000908346
0.000908349
0.000908352
0.000908355
0.000908358
0.00090836
0.000908363
0.000908366
0.000908369
0.000908371
0.000908374
0.000908377
0.000908379
0.000908382
0.000908384
0.000908387
0.000908389
0.000908392
0.000908394
0.000908397
0.000908399
0.000908401
0.000908404
0.000908406
0.000908408
0.00090841
0.000908413
0.000908415
0.000908417
0.000908419
0.000908421
0.000908423
0.000908425
0.000908427
0.000908429
0.000908431
0.000908433
0.000908434
0.000908436
0.000908438
0.00090844
0.000908441
0.000908443
0.000908445
0.000908446
0.000908448
0.000908449
0.000908451
0.000908452
0.000908454
0.000908455
0.000908456
0.000908458
0.000908459
0.00090846
0.000908462
0.000908463
0.000908464
0.000908465
0.000908466
0.000908467
0.000908468
0.000908469
0.00090847
0.000908471
0.000908472
0.000908473
0.000908474
0.000908475
0.000908476
0.000908476
0.000908477
0.000908478
0.000908478
0.000908479
0.00090848
0.00090848
0.000908481
0.000908481
0.000908482
0.000908482
0.000908483
0.000908483
0.000908483
0.000908484
0.000908484
0.000908484
0.000908484
0.000908485
0.000908485
0.000908485
0.000908485
0.000908485
0.000908485
)
;

boundaryField
{
    fixedWall
    {
        type            calculated;
        value           uniform 0;
    }
    outlet
    {
        type            calculated;
        value           uniform 0.000908485;
    }
    defaultFaces
    {
        type            empty;
    }
}


// ************************************************************************* //
