/*--------------------------------*- C++ -*----------------------------------*\
| =========                 |                                                 |
| \\      /  F ield         | OpenFOAM: The Open Source CFD Toolbox           |
|  \\    /   O peration     | Version:  2406                                  |
|   \\  /    A nd           | Website:  www.openfoam.com                      |
|    \\/     M anipulation  |                                                 |
\*---------------------------------------------------------------------------*/
FoamFile
{
    version     2.0;
    format      ascii;
    arch        "LSB;label=32;scalar=64";
    class       volScalarField;
    location    "0.8";
    object      Qdot;
}
// * * * * * * * * * * * * * * * * * * * * * * * * * * * * * * * * * * * * * //

dimensions      [1 -1 -3 0 0 0 0];

internalField   nonuniform List<scalar> 
1000
(
-6.86096e-08
6.78678e-07
4.77397e-05
0.000700664
0.00467149
0.0193303
0.0583957
0.141436
0.291131
0.529285
0.872909
1.33145
1.90575
2.58864
3.36682
4.22334
5.14006
6.09968
7.08712
8.09024
9.1
10.1102
11.1169
12.1183
13.1136
14.1031
15.0875
16.0679
17.0454
18.0171
18.9699
19.9503
20.933
21.9189
22.909
23.905
24.9086
25.9219
26.9468
27.9857
29.0412
30.1157
31.2121
32.3334
33.4827
34.6634
35.879
37.1333
38.4302
39.7739
41.169
42.6203
44.1327
45.7118
47.3634
49.0938
50.9097
52.8183
54.8273
56.9453
59.1812
61.5449
64.0471
66.6992
69.5138
72.5045
75.6863
79.0753
82.6891
86.5473
90.671
95.0837
99.811
104.882
110.327
116.183
122.489
129.291
136.638
144.589
153.21
162.577
172.753
183.603
195.832
209.27
224.09
240.493
258.72
279.057
301.842
327.214
355.479
388.559
426.376
469.853
520.138
578.674
647.293
728.362
824.98
941.282
1082.87
1257.47
1475.98
1754.01
2114.57
2592.55
3242.77
4154.62
5479.36
7482.14
10646.2
15906.8
25280.7
43953.3
88279.1
217931
660778
2.2401e+06
8.15023e+06
3.81948e+07
3.69519e+06
13747
51.9273
0.647447
0.0344652
0.00585606
0.00213408
0.00122363
0.000905687
0.000770879
0.000707508
0.000675902
0.000659744
0.000651305
0.00064696
0.000644622
0.000643414
0.000642702
0.000642393
0.000642125
0.000642087
0.000641963
0.000641933
0.000641918
0.000641978
0.000641905
0.000641972
0.000641971
0.000641971
0.000641971
0.000641971
0.000641902
0.000641971
0.000641903
0.000641972
0.000641972
0.000641973
0.000641973
0.000641973
0.000641974
0.000641905
0.000641974
0.000641975
0.000641907
0.000641976
0.000641976
0.000641976
0.000641908
0.000641909
0.000641909
0.000641978
0.00064191
0.00064191
0.000641911
0.00064198
0.00064198
0.00064198
0.000641981
0.000641981
0.000641981
0.000641982
0.000641982
0.000641914
0.000641915
0.000641915
0.000641984
0.000641984
0.000641916
0.000641985
0.000641917
0.000641986
0.000641918
0.000641987
0.000641987
0.000641919
0.00064192
0.000641989
0.000641989
0.00064199
0.00064199
0.000641922
0.000641991
0.000641991
0.000641992
0.000641924
0.000641993
0.000641993
0.000641993
0.000641925
0.000641994
0.000641926
0.000641995
0.000641996
0.000641996
0.000641928
0.000641997
0.000641929
0.000641929
0.00064193
0.00064193
0.000641999
0.000642
0.000642
0.000641932
0.000641932
0.000642001
0.000642002
0.000641934
0.000641934
0.000642003
0.000642004
0.000642004
0.000642004
0.000641936
0.000641937
0.000641937
0.000641938
0.000641938
0.000641938
0.000642007
0.000642008
0.000642008
0.00064194
0.000641941
0.000642009
0.000641941
0.00064201
0.000642011
0.000641943
0.000642012
0.000642012
0.000641944
0.000642013
0.000641945
0.000641945
0.000642014
0.000642015
0.000642015
0.000641947
0.000641947
0.000641948
0.000642017
0.000641948
0.000642017
0.000641949
0.000642018
0.00064195
0.00064195
0.000642019
0.000641951
0.000641952
0.000641952
0.000642021
0.000642021
0.000642022
0.000641954
0.000641954
0.000641955
0.000642024
0.000641955
0.000641956
0.000641956
0.000642025
0.000642026
0.000641957
0.000642026
0.000641958
0.000642027
0.000641959
0.00064196
0.00064196
0.00064196
0.000641961
0.000641961
0.00064203
0.00064203
0.000642031
0.000641963
0.000641963
0.000642032
0.000641964
0.000642033
0.000641965
0.000642034
0.000641965
0.000641966
0.000641966
0.000642035
0.000642036
0.000642036
0.000642036
0.000642037
0.000642037
0.000641969
0.000641969
0.000642038
0.000642039
0.000642039
0.00064204
0.000641972
0.000641972
0.000642041
0.000642041
0.000642042
0.000641974
0.000641974
0.000642043
0.000642043
0.000641975
0.000642044
0.000641976
0.000642045
0.000642045
0.000642046
0.000641978
0.000642047
0.000642047
0.000642047
0.000642048
0.00064198
0.000642049
0.000642049
0.000641981
0.00064205
0.00064205
0.000642051
0.000642051
0.000641983
0.000642052
0.000641984
0.000642053
0.000641985
0.000642054
0.000642054
0.000642055
0.000642055
0.000642055
0.000641987
0.000642056
0.000642057
0.000641989
0.000642058
0.00064199
0.00064199
0.000642059
0.000641991
0.00064206
0.000641992
0.000641992
0.000642061
0.000642062
0.000641993
0.000642062
0.000641994
0.000642063
0.000642064
0.000642064
0.000642065
0.000642065
0.000642066
0.000641998
0.000642067
0.000641999
0.000641999
0.000642068
0.000642068
0.000642
0.000642001
0.00064207
0.000642002
0.000642071
0.000642003
0.000642003
0.000642072
0.000642073
0.000642073
0.000642005
0.000642074
0.000642006
0.000642075
0.000642076
0.000642076
0.000642008
0.000642077
0.000642009
0.000642009
0.000642078
0.00064201
0.000642011
0.000642011
0.000642012
0.000642081
0.000642081
0.000642013
0.000642082
0.000642014
0.000642015
0.000642015
0.000642016
0.000642016
0.000642085
0.000642017
0.000642086
0.000642018
0.000642087
0.000642088
0.000642088
0.000642089
0.000642021
0.00064209
0.00064209
0.000642091
0.000642092
0.000642023
0.000642024
0.000642024
0.000642025
0.000642025
0.000642026
0.000642026
0.000642027
0.000642096
0.000642097
0.000642028
0.000642029
0.00064203
0.000642099
0.000642031
0.0006421
0.0006421
0.000642101
0.000642033
0.000642033
0.000642102
0.000642103
0.000642104
0.000642104
0.000642105
0.000642037
0.000642106
0.000642106
0.000642107
0.000642039
0.000642039
0.000642109
0.000642109
0.000642041
0.000642042
0.000642111
0.000642043
0.000642043
0.000642044
0.000642044
0.000642113
0.000642045
0.000642114
0.000642115
0.000642047
0.000642048
0.000642048
0.000642117
0.000642049
0.00064205
0.000642119
0.00064212
0.00064212
0.000642121
0.000642053
0.000642122
0.000642054
0.000642054
0.000642124
0.000642124
0.000642056
0.000642057
0.000642126
0.000642126
0.000642127
0.000642128
0.000642128
0.000642129
0.000642061
0.00064213
0.000642131
0.000642062
0.000642063
0.000642064
0.000642133
0.000642133
0.000642134
0.000642066
0.000642067
0.000642136
0.000642068
0.000642137
0.000642069
0.000642138
0.000642139
0.000642139
0.00064214
0.000642072
0.000642073
0.000642142
0.000642142
0.000642143
0.000642144
0.000642144
0.000642076
0.000642145
0.000642077
0.000642078
0.000642147
0.000642148
0.00064208
0.00064208
0.000642149
0.000642081
0.000642151
0.000642151
0.000642152
0.000642153
0.000642085
0.000642154
0.000642086
0.000642155
0.000642087
0.000642088
0.000642157
0.000642089
0.000642158
0.000642158
0.000642159
0.000642091
0.00064216
0.000642092
0.000642162
0.000642162
0.000642094
0.000642095
0.000642164
0.000642096
0.000642165
0.000642166
0.000642098
0.000642099
0.000642099
0.000642169
0.0006421
0.00064217
0.00064217
0.000642171
0.000642172
0.000642172
0.000642104
0.000642174
0.000642106
0.000642106
0.000642175
0.000642107
0.000642108
0.000642177
0.000642178
0.000642178
0.00064211
0.00064218
0.000642112
0.000642112
0.000642182
0.000642114
0.000642183
0.000642115
0.000642116
0.000642116
0.000642117
0.000642117
0.000642187
0.000642187
0.000642119
0.000642189
0.000642189
0.000642121
0.000642191
0.000642191
0.000642123
0.000642192
0.000642124
0.000642194
0.000642194
0.000642195
0.000642127
0.000642196
0.000642128
0.000642197
0.00064213
0.00064213
0.000642131
0.000642131
0.000642201
0.000642201
0.000642202
0.000642203
0.000642135
0.000642135
0.000642205
0.000642206
0.000642137
0.000642207
0.000642207
0.000642139
0.000642208
0.000642209
0.00064221
0.000642142
0.000642211
0.000642143
0.000642144
0.000642213
0.000642214
0.000642214
0.000642215
0.000642147
0.000642216
0.000642149
0.000642218
0.00064215
0.000642151
0.000642151
0.00064222
0.000642152
0.000642153
0.000642222
0.000642223
0.000642224
0.000642224
0.000642225
0.000642157
0.000642226
0.000642158
0.000642228
0.00064216
0.00064216
0.00064223
0.000642162
0.000642231
0.000642232
0.000642232
0.000642233
0.000642165
0.000642166
0.000642235
0.000642167
0.000642168
0.000642168
0.000642238
0.000642238
0.00064217
0.00064224
0.00064224
0.000642173
0.000642173
0.000642243
0.000642243
0.000642244
0.000642176
0.000642245
0.000642246
0.000642246
0.000642247
0.000642248
0.000642249
0.000642249
0.00064225
0.000642182
0.000642183
0.000642252
0.000642253
0.000642253
0.000642254
0.000642186
0.000642187
0.000642256
0.000642257
0.000642189
0.00064219
0.000642259
0.00064226
0.000642192
0.000642261
0.000642193
0.000642194
0.000642195
0.000642195
0.000642196
0.000642265
0.000642197
0.000642267
0.000642267
0.000642199
0.000642269
0.000642269
0.00064227
0.000642202
0.000642272
0.000642204
0.000642273
0.000642274
0.000642274
0.000642275
0.000642207
0.000642276
0.000642209
0.000642278
0.00064221
0.000642279
0.00064228
0.000642212
0.000642281
0.000642282
0.000642214
0.000642284
0.000642216
0.000642216
0.000642217
0.000642218
0.000642287
0.000642219
0.000642288
0.000642221
0.00064229
0.000642222
0.000642291
0.000642223
0.000642293
0.000642225
0.000642294
0.000642295
0.000642296
0.000642228
0.000642228
0.000642229
0.000642299
0.000642231
0.000642232
0.000642301
0.000642302
0.000642302
0.000642303
0.000642304
0.000642236
0.000642305
0.000642306
0.000642307
0.000642307
0.000642308
0.000642309
0.00064231
0.00064231
0.000642243
0.000642243
0.000642244
0.000642313
0.000642314
0.000642315
0.000642247
0.000642248
0.000642249
0.000642318
0.000642319
0.000642319
0.00064232
0.000642252
0.000642322
0.000642322
0.000642323
0.000642256
0.000642325
0.000642257
0.000642258
0.000642327
0.000642259
0.000642329
0.000642329
0.00064233
0.000642262
0.000642332
0.000642264
0.000642333
0.000642265
0.000642335
0.000642267
0.000642267
0.000642337
0.000642338
0.00064227
0.000642339
0.000642271
0.000642272
0.000642341
0.000642343
0.000642343
0.000642275
0.000642345
0.000642346
0.000642278
0.000642278
0.000642348
0.000642349
0.000642281
0.00064235
0.000642282
0.000642352
0.000642352
0.000642284
0.000642354
0.000642286
0.000642287
0.000642356
0.000642357
0.000642358
0.000642359
0.00064236
0.000642361
0.000642361
0.000642293
0.000642363
0.000642295
0.000642365
0.000642365
0.000642297
0.000642298
0.000642299
0.000642368
0.000642369
0.00064237
0.000642371
0.000642372
0.000642304
0.000642373
0.000642374
0.000642375
0.000642376
0.000642376
0.000642377
0.000642378
0.00064231
0.000642311
0.000642312
0.000642313
0.000642313
0.000642383
0.000642315
0.000642385
0.000642385
0.000642318
0.000642318
0.000642319
0.00064232
0.000642321
0.000642322
0.000642391
0.000642323
0.000642393
0.000642393
0.000642394
0.000642327
0.000642327
0.000642397
0.000642329
0.000642398
0.000642399
0.000642331
0.000642401
0.000642402
0.000642403
0.000642403
0.000642404
0.000642405
0.000642406
0.000642338
0.000642339
0.000642408
0.000642409
0.000642342
0.000642411
0.000642343
0.000642413
0.000642345
0.000642414
0.000642346
0.000642416
0.000642348
0.000642349
0.000642419
0.000642351
0.000642351
0.000642421
0.000642422
0.000642423
0.000642423
0.000642424
0.000642425
0.000642357
0.000642358
0.000642359
0.000642428
0.000642361
0.00064243
0.000642431
0.000642432
0.000642364
0.000642434
0.000642434
0.000642367
0.000642436
0.000642437
0.000642438
0.000642439
0.00064244
0.00064244
0.000642373
0.000642373
0.000642443
0.000642375
0.000642376
0.000642377
0.000642378
0.000642448
0.000642448
0.000642449
0.00064245
0.000642382
0.000642452
0.000642453
0.000642453
0.000642454
0.000642386
0.000642387
0.000642457
0.000642389
0.000642458
0.000642459
0.00064246
0.000642461
0.000642462
0.000642394
0.000642395
0.000642465
0.000642397
0.000642466
0.000642398
0.000642468
0.000642469
0.00064247
0.00064247
0.000642403
0.000642404
0.000642473
0.000642474
0.000642406
0.000642407
0.000642408
0.000642477
0.00064241
0.000642479
0.00064248
0.000642412
0.000642482
0.000642414
0.000642415
0.000642485
0.000642485
0.000642486
0.000642419
0.000642488
0.000642488
0.000642489
0.000642422
0.000642423
)
;

boundaryField
{
    fixedWall
    {
        type            calculated;
        value           uniform 0;
    }
    outlet
    {
        type            calculated;
        value           uniform 0;
    }
    defaultFaces
    {
        type            empty;
    }
}


// ************************************************************************* //
