/*--------------------------------*- C++ -*----------------------------------*\
| =========                 |                                                 |
| \\      /  F ield         | OpenFOAM: The Open Source CFD Toolbox           |
|  \\    /   O peration     | Version:  2406                                  |
|   \\  /    A nd           | Website:  www.openfoam.com                      |
|    \\/     M anipulation  |                                                 |
\*---------------------------------------------------------------------------*/
FoamFile
{
    version     2.0;
    format      ascii;
    arch        "LSB;label=32;scalar=64";
    class       volScalarField;
    location    "12.2";
    object      O2;
}
// * * * * * * * * * * * * * * * * * * * * * * * * * * * * * * * * * * * * * //

dimensions      [0 0 0 0 0 0 0];

internalField   nonuniform List<scalar> 
1000
(
1.06699e-06
1.0654e-06
1.06249e-06
1.05847e-06
1.05348e-06
1.04765e-06
1.04108e-06
1.03385e-06
1.02602e-06
1.01766e-06
1.00882e-06
9.99535e-07
9.89859e-07
9.79822e-07
9.69459e-07
9.58798e-07
9.47867e-07
9.36691e-07
9.25294e-07
9.13697e-07
9.01921e-07
8.89984e-07
8.77905e-07
8.65701e-07
8.53388e-07
8.4098e-07
8.28494e-07
8.15943e-07
8.03341e-07
7.90701e-07
7.78035e-07
7.65357e-07
7.52678e-07
7.40009e-07
7.27363e-07
7.14749e-07
7.0218e-07
6.89666e-07
6.77216e-07
6.64841e-07
6.5255e-07
6.40353e-07
6.28259e-07
6.16276e-07
6.04413e-07
5.92678e-07
5.81078e-07
5.6962e-07
5.58312e-07
5.4716e-07
5.36169e-07
5.25346e-07
5.14696e-07
5.04223e-07
4.93932e-07
4.83826e-07
4.73908e-07
4.64183e-07
4.54653e-07
4.45318e-07
4.36183e-07
4.27247e-07
4.18511e-07
4.09977e-07
4.01644e-07
3.93513e-07
3.85583e-07
3.77853e-07
3.70323e-07
3.6299e-07
3.55854e-07
3.48912e-07
3.42163e-07
3.35604e-07
3.29234e-07
3.23048e-07
3.17046e-07
3.11223e-07
3.05577e-07
3.00104e-07
2.94802e-07
2.89667e-07
2.84697e-07
2.79886e-07
2.75233e-07
2.70733e-07
2.66382e-07
2.62179e-07
2.58118e-07
2.54197e-07
2.50411e-07
2.46758e-07
2.43233e-07
2.39834e-07
2.36556e-07
2.33397e-07
2.30353e-07
2.27421e-07
2.24598e-07
2.21879e-07
2.19263e-07
2.16746e-07
2.14325e-07
2.11996e-07
2.09758e-07
2.07607e-07
2.0554e-07
2.03555e-07
2.01648e-07
1.99818e-07
1.98062e-07
1.96377e-07
1.9476e-07
1.93211e-07
1.91725e-07
1.90301e-07
1.88938e-07
1.87631e-07
1.86381e-07
1.85184e-07
1.84038e-07
1.82943e-07
1.81895e-07
1.80894e-07
1.79938e-07
1.79024e-07
1.78151e-07
1.77319e-07
1.76524e-07
1.75767e-07
1.75045e-07
1.74356e-07
1.73701e-07
1.73077e-07
1.72484e-07
1.71919e-07
1.71383e-07
1.70873e-07
1.70389e-07
1.6993e-07
1.69495e-07
1.69082e-07
1.68692e-07
1.68322e-07
1.67973e-07
1.67643e-07
1.67332e-07
1.67039e-07
1.66763e-07
1.66503e-07
1.66259e-07
1.6603e-07
1.65815e-07
1.65615e-07
1.65427e-07
1.65253e-07
1.6509e-07
1.64939e-07
1.648e-07
1.64671e-07
1.64552e-07
1.64444e-07
1.64344e-07
1.64254e-07
1.64172e-07
1.64099e-07
1.64033e-07
1.63975e-07
1.63924e-07
1.6388e-07
1.63843e-07
1.63812e-07
1.63787e-07
1.63767e-07
1.63753e-07
1.63745e-07
1.63741e-07
1.63743e-07
1.63748e-07
1.63759e-07
1.63773e-07
1.63791e-07
1.63814e-07
1.63839e-07
1.63869e-07
1.63902e-07
1.63937e-07
1.63976e-07
1.64018e-07
1.64063e-07
1.6411e-07
1.64159e-07
1.64211e-07
1.64266e-07
1.64322e-07
1.64381e-07
1.64441e-07
1.64504e-07
1.64568e-07
1.64634e-07
1.64702e-07
1.64771e-07
1.64842e-07
1.64914e-07
1.64987e-07
1.65062e-07
1.65138e-07
1.65215e-07
1.65293e-07
1.65373e-07
1.65453e-07
1.65535e-07
1.65617e-07
1.657e-07
1.65784e-07
1.65869e-07
1.65954e-07
1.6604e-07
1.66128e-07
1.66215e-07
1.66304e-07
1.66392e-07
1.66482e-07
1.66572e-07
1.66663e-07
1.66754e-07
1.66845e-07
1.66937e-07
1.6703e-07
1.67122e-07
1.67216e-07
1.67309e-07
1.67403e-07
1.67498e-07
1.67592e-07
1.67687e-07
1.67783e-07
1.67878e-07
1.67974e-07
1.6807e-07
1.68167e-07
1.68264e-07
1.68361e-07
1.68458e-07
1.68555e-07
1.68653e-07
1.68751e-07
1.68849e-07
1.68947e-07
1.69045e-07
1.69144e-07
1.69243e-07
1.69342e-07
1.69441e-07
1.6954e-07
1.69639e-07
1.69739e-07
1.69839e-07
1.69939e-07
1.70039e-07
1.70139e-07
1.70239e-07
1.70339e-07
1.7044e-07
1.70541e-07
1.70642e-07
1.70742e-07
1.70843e-07
1.70944e-07
1.71046e-07
1.71147e-07
1.71248e-07
1.7135e-07
1.71452e-07
1.71554e-07
1.71656e-07
1.71758e-07
1.7186e-07
1.71962e-07
1.72064e-07
1.72167e-07
1.72269e-07
1.72372e-07
1.72474e-07
1.72577e-07
1.7268e-07
1.72783e-07
1.72886e-07
1.7299e-07
1.73093e-07
1.73196e-07
1.733e-07
1.73403e-07
1.73507e-07
1.73611e-07
1.73715e-07
1.73819e-07
1.73923e-07
1.74027e-07
1.74131e-07
1.74236e-07
1.7434e-07
1.74445e-07
1.74549e-07
1.74654e-07
1.74759e-07
1.74864e-07
1.74969e-07
1.75074e-07
1.7518e-07
1.75285e-07
1.75391e-07
1.75496e-07
1.75602e-07
1.75708e-07
1.75814e-07
1.7592e-07
1.76026e-07
1.76132e-07
1.76239e-07
1.76345e-07
1.76452e-07
1.76559e-07
1.76665e-07
1.76772e-07
1.76879e-07
1.76987e-07
1.77094e-07
1.77201e-07
1.77309e-07
1.77417e-07
1.77524e-07
1.77632e-07
1.7774e-07
1.77848e-07
1.77957e-07
1.78065e-07
1.78173e-07
1.78282e-07
1.78391e-07
1.785e-07
1.78608e-07
1.78718e-07
1.78827e-07
1.78936e-07
1.79046e-07
1.79155e-07
1.79265e-07
1.79375e-07
1.79485e-07
1.79595e-07
1.79706e-07
1.79816e-07
1.79927e-07
1.80037e-07
1.80148e-07
1.80259e-07
1.8037e-07
1.80481e-07
1.80593e-07
1.80704e-07
1.80816e-07
1.80928e-07
1.8104e-07
1.81152e-07
1.81264e-07
1.81376e-07
1.81489e-07
1.81601e-07
1.81714e-07
1.81827e-07
1.8194e-07
1.82053e-07
1.82167e-07
1.8228e-07
1.82394e-07
1.82508e-07
1.82622e-07
1.82736e-07
1.8285e-07
1.82964e-07
1.83079e-07
1.83194e-07
1.83309e-07
1.83423e-07
1.83539e-07
1.83654e-07
1.83769e-07
1.83885e-07
1.84001e-07
1.84117e-07
1.84233e-07
1.84349e-07
1.84465e-07
1.84582e-07
1.84698e-07
1.84815e-07
1.84932e-07
1.85049e-07
1.85166e-07
1.85284e-07
1.85401e-07
1.85519e-07
1.85637e-07
1.85755e-07
1.85873e-07
1.85992e-07
1.8611e-07
1.86229e-07
1.86348e-07
1.86467e-07
1.86586e-07
1.86705e-07
1.86824e-07
1.86944e-07
1.87064e-07
1.87184e-07
1.87304e-07
1.87424e-07
1.87544e-07
1.87665e-07
1.87786e-07
1.87907e-07
1.88028e-07
1.88149e-07
1.8827e-07
1.88391e-07
1.88513e-07
1.88635e-07
1.88757e-07
1.88879e-07
1.89001e-07
1.89124e-07
1.89246e-07
1.89369e-07
1.89492e-07
1.89615e-07
1.89738e-07
1.89862e-07
1.89985e-07
1.90109e-07
1.90233e-07
1.90357e-07
1.90481e-07
1.90605e-07
1.9073e-07
1.90855e-07
1.90979e-07
1.91104e-07
1.9123e-07
1.91355e-07
1.9148e-07
1.91606e-07
1.91732e-07
1.91858e-07
1.91984e-07
1.9211e-07
1.92237e-07
1.92363e-07
1.9249e-07
1.92617e-07
1.92744e-07
1.92872e-07
1.92999e-07
1.93127e-07
1.93255e-07
1.93383e-07
1.93511e-07
1.93639e-07
1.93768e-07
1.93896e-07
1.94025e-07
1.94154e-07
1.94283e-07
1.94413e-07
1.94542e-07
1.94672e-07
1.94802e-07
1.94932e-07
1.95062e-07
1.95193e-07
1.95323e-07
1.95454e-07
1.95585e-07
1.95716e-07
1.95847e-07
1.95979e-07
1.96111e-07
1.96242e-07
1.96374e-07
1.96507e-07
1.96639e-07
1.96772e-07
1.96904e-07
1.97037e-07
1.9717e-07
1.97303e-07
1.97437e-07
1.97571e-07
1.97704e-07
1.97838e-07
1.97973e-07
1.98107e-07
1.98241e-07
1.98376e-07
1.98511e-07
1.98646e-07
1.98781e-07
1.98917e-07
1.99053e-07
1.99188e-07
1.99324e-07
1.99461e-07
1.99597e-07
1.99734e-07
1.9987e-07
2.00007e-07
2.00145e-07
2.00282e-07
2.00419e-07
2.00557e-07
2.00695e-07
2.00833e-07
2.00971e-07
2.0111e-07
2.01248e-07
2.01387e-07
2.01526e-07
2.01666e-07
2.01805e-07
2.01945e-07
2.02084e-07
2.02224e-07
2.02365e-07
2.02505e-07
2.02646e-07
2.02786e-07
2.02927e-07
2.03069e-07
2.0321e-07
2.03351e-07
2.03493e-07
2.03635e-07
2.03777e-07
2.03919e-07
2.04062e-07
2.04205e-07
2.04348e-07
2.04491e-07
2.04634e-07
2.04778e-07
2.04921e-07
2.05065e-07
2.05209e-07
2.05354e-07
2.05498e-07
2.05643e-07
2.05788e-07
2.05933e-07
2.06078e-07
2.06224e-07
2.0637e-07
2.06516e-07
2.06662e-07
2.06808e-07
2.06955e-07
2.07101e-07
2.07248e-07
2.07395e-07
2.07543e-07
2.0769e-07
2.07838e-07
2.07986e-07
2.08134e-07
2.08283e-07
2.08431e-07
2.0858e-07
2.08729e-07
2.08879e-07
2.09028e-07
2.09178e-07
2.09328e-07
2.09478e-07
2.09628e-07
2.09779e-07
2.09929e-07
2.1008e-07
2.10232e-07
2.10383e-07
2.10535e-07
2.10687e-07
2.10839e-07
2.10991e-07
2.11143e-07
2.11296e-07
2.11449e-07
2.11602e-07
2.11756e-07
2.1191e-07
2.12063e-07
2.12217e-07
2.12372e-07
2.12526e-07
2.12681e-07
2.12836e-07
2.12991e-07
2.13147e-07
2.13302e-07
2.13458e-07
2.13614e-07
2.13771e-07
2.13927e-07
2.14084e-07
2.14241e-07
2.14399e-07
2.14556e-07
2.14714e-07
2.14872e-07
2.1503e-07
2.15189e-07
2.15348e-07
2.15507e-07
2.15666e-07
2.15825e-07
2.15984e-07
2.16144e-07
2.16304e-07
2.16465e-07
2.16625e-07
2.16786e-07
2.16947e-07
2.17109e-07
2.1727e-07
2.17432e-07
2.17594e-07
2.17757e-07
2.1792e-07
2.18082e-07
2.18246e-07
2.18409e-07
2.18573e-07
2.18737e-07
2.18901e-07
2.19065e-07
2.1923e-07
2.19395e-07
2.1956e-07
2.19725e-07
2.19891e-07
2.20057e-07
2.20223e-07
2.20389e-07
2.20556e-07
2.20723e-07
2.2089e-07
2.21057e-07
2.21225e-07
2.21393e-07
2.21561e-07
2.21729e-07
2.21898e-07
2.22067e-07
2.22236e-07
2.22406e-07
2.22575e-07
2.22744e-07
2.22914e-07
2.23084e-07
2.23255e-07
2.23426e-07
2.23597e-07
2.23768e-07
2.2394e-07
2.24112e-07
2.24284e-07
2.24457e-07
2.24629e-07
2.24802e-07
2.24975e-07
2.25149e-07
2.25323e-07
2.25496e-07
2.25671e-07
2.25845e-07
2.2602e-07
2.26195e-07
2.2637e-07
2.26546e-07
2.26722e-07
2.26898e-07
2.27074e-07
2.27251e-07
2.27427e-07
2.27605e-07
2.27782e-07
2.2796e-07
2.28138e-07
2.28316e-07
2.28494e-07
2.28673e-07
2.28852e-07
2.29031e-07
2.29211e-07
2.29391e-07
2.29571e-07
2.29751e-07
2.29932e-07
2.30113e-07
2.30294e-07
2.30476e-07
2.30658e-07
2.3084e-07
2.31022e-07
2.31205e-07
2.31388e-07
2.31572e-07
2.31755e-07
2.31938e-07
2.32122e-07
2.32306e-07
2.32491e-07
2.32676e-07
2.32861e-07
2.33047e-07
2.33233e-07
2.33419e-07
2.33606e-07
2.33793e-07
2.3398e-07
2.34167e-07
2.34355e-07
2.34542e-07
2.3473e-07
2.34919e-07
2.35108e-07
2.35297e-07
2.35486e-07
2.35676e-07
2.35867e-07
2.36057e-07
2.36248e-07
2.36439e-07
2.36631e-07
2.36823e-07
2.37015e-07
2.37207e-07
2.374e-07
2.37594e-07
2.37787e-07
2.37981e-07
2.38175e-07
2.3837e-07
2.38565e-07
2.3876e-07
2.38956e-07
2.39152e-07
2.39348e-07
2.39545e-07
2.39742e-07
2.39939e-07
2.40137e-07
2.40336e-07
2.40534e-07
2.40733e-07
2.40932e-07
2.41132e-07
2.41332e-07
2.41533e-07
2.41734e-07
2.41935e-07
2.42137e-07
2.42339e-07
2.42542e-07
2.42745e-07
2.42949e-07
2.43153e-07
2.43357e-07
2.43562e-07
2.43768e-07
2.43974e-07
2.4418e-07
2.44388e-07
2.44595e-07
2.44803e-07
2.45012e-07
2.45222e-07
2.45432e-07
2.45643e-07
2.45854e-07
2.46066e-07
2.46279e-07
2.46493e-07
2.46707e-07
2.46923e-07
2.47139e-07
2.47356e-07
2.47574e-07
2.47794e-07
2.48014e-07
2.48235e-07
2.48458e-07
2.48682e-07
2.48908e-07
2.49134e-07
2.49363e-07
2.49593e-07
2.49824e-07
2.50058e-07
2.50293e-07
2.5053e-07
2.5077e-07
2.51012e-07
2.51256e-07
2.51503e-07
2.51752e-07
2.52005e-07
2.52261e-07
2.5252e-07
2.52782e-07
2.53048e-07
2.53319e-07
2.53593e-07
2.53872e-07
2.54156e-07
2.54445e-07
2.54739e-07
2.55039e-07
2.55345e-07
2.55658e-07
2.55978e-07
2.56305e-07
2.5664e-07
2.56983e-07
2.57335e-07
2.57697e-07
2.58069e-07
2.58451e-07
2.58845e-07
2.59251e-07
2.59669e-07
2.60102e-07
2.60548e-07
2.6101e-07
2.61488e-07
2.61983e-07
2.62496e-07
2.63029e-07
2.63582e-07
2.64156e-07
2.64754e-07
2.65375e-07
2.66023e-07
2.66697e-07
2.674e-07
2.68133e-07
2.68899e-07
2.69698e-07
2.70533e-07
2.71406e-07
2.72319e-07
2.73274e-07
2.74273e-07
2.75318e-07
2.76413e-07
2.7756e-07
2.78762e-07
2.80021e-07
2.81341e-07
2.82724e-07
2.84175e-07
2.85696e-07
2.87291e-07
2.88964e-07
2.90718e-07
2.92558e-07
2.94488e-07
2.96513e-07
2.98636e-07
3.00863e-07
3.03199e-07
3.05648e-07
3.08216e-07
3.10908e-07
3.1373e-07
3.16688e-07
3.19788e-07
3.23036e-07
3.26439e-07
3.30003e-07
3.33734e-07
3.37641e-07
3.41729e-07
3.46007e-07
3.50483e-07
3.55162e-07
3.60055e-07
3.65167e-07
3.70509e-07
3.76088e-07
3.81912e-07
3.8799e-07
3.9433e-07
4.00942e-07
4.07834e-07
4.15014e-07
4.22492e-07
4.30275e-07
4.38373e-07
4.46793e-07
4.55545e-07
4.64635e-07
4.74072e-07
4.83864e-07
4.94016e-07
5.04536e-07
5.15429e-07
5.26701e-07
5.38356e-07
5.50398e-07
5.62831e-07
5.75655e-07
5.88872e-07
6.02482e-07
6.16482e-07
6.30869e-07
6.45638e-07
6.60783e-07
6.76294e-07
6.92162e-07
7.08374e-07
7.24914e-07
7.41764e-07
7.58905e-07
7.76314e-07
7.93964e-07
8.11827e-07
8.29871e-07
8.4806e-07
8.66357e-07
8.84718e-07
9.03099e-07
9.2145e-07
9.39721e-07
9.57854e-07
9.75792e-07
9.93471e-07
1.01083e-06
1.02779e-06
1.04429e-06
1.06026e-06
1.07562e-06
1.09028e-06
1.10418e-06
1.11723e-06
1.12936e-06
1.14047e-06
1.15049e-06
1.15934e-06
1.16694e-06
1.1732e-06
1.17806e-06
1.18144e-06
1.18325e-06
1.18346e-06
1.18198e-06
1.17875e-06
1.17372e-06
1.16683e-06
1.15804e-06
1.1473e-06
1.13457e-06
1.11982e-06
1.10303e-06
1.08417e-06
1.06323e-06
1.0402e-06
1.01508e-06
9.8788e-07
9.58605e-07
9.27281e-07
8.93939e-07
8.58619e-07
8.21373e-07
7.8226e-07
7.41357e-07
6.9875e-07
6.54542e-07
6.08852e-07
5.61818e-07
5.13598e-07
4.64373e-07
4.1435e-07
3.63764e-07
3.12881e-07
2.62004e-07
2.11473e-07
1.61669e-07
1.13019e-07
6.59907e-08
2.10988e-08
)
;

boundaryField
{
    fixedWall
    {
        type            zeroGradient;
    }
    outlet
    {
        type            inletOutlet;
        inletValue      uniform 0;
        value           uniform 0;
    }
    defaultFaces
    {
        type            empty;
    }
}


// ************************************************************************* //
