/*--------------------------------*- C++ -*----------------------------------*\
| =========                 |                                                 |
| \\      /  F ield         | OpenFOAM: The Open Source CFD Toolbox           |
|  \\    /   O peration     | Version:  2406                                  |
|   \\  /    A nd           | Website:  www.openfoam.com                      |
|    \\/     M anipulation  |                                                 |
\*---------------------------------------------------------------------------*/
FoamFile
{
    version     2.0;
    format      ascii;
    arch        "LSB;label=32;scalar=64";
    class       surfaceScalarField;
    location    "12.2";
    object      phi;
}
// * * * * * * * * * * * * * * * * * * * * * * * * * * * * * * * * * * * * * //

dimensions      [1 0 -1 0 0 0 0];

oriented        oriented;

internalField   nonuniform List<scalar> 
999
(
-1.36184e-08
-4.59657e-08
-9.04687e-08
-1.43042e-07
-2.01018e-07
-2.62618e-07
-3.26603e-07
-3.92101e-07
-4.58486e-07
-5.25311e-07
-5.9223e-07
-6.59011e-07
-7.25453e-07
-7.91427e-07
-8.56831e-07
-9.21584e-07
-9.85628e-07
-1.04892e-06
-1.11143e-06
-1.17315e-06
-1.23404e-06
-1.29411e-06
-1.35335e-06
-1.41177e-06
-1.46935e-06
-1.5261e-06
-1.58204e-06
-1.63716e-06
-1.69148e-06
-1.74499e-06
-1.79772e-06
-1.84966e-06
-1.90083e-06
-1.95124e-06
-2.00089e-06
-2.04979e-06
-2.09796e-06
-2.14541e-06
-2.19213e-06
-2.23815e-06
-2.28346e-06
-2.32808e-06
-2.37202e-06
-2.41529e-06
-2.45788e-06
-2.49982e-06
-2.5411e-06
-2.58175e-06
-2.62175e-06
-2.66113e-06
-2.69988e-06
-2.73802e-06
-2.77556e-06
-2.81249e-06
-2.84884e-06
-2.88459e-06
-2.91977e-06
-2.95437e-06
-2.98841e-06
-3.02188e-06
-3.0548e-06
-3.08718e-06
-3.11901e-06
-3.1503e-06
-3.18106e-06
-3.2113e-06
-3.24103e-06
-3.27023e-06
-3.29894e-06
-3.32714e-06
-3.35484e-06
-3.38205e-06
-3.40878e-06
-3.43503e-06
-3.4608e-06
-3.48611e-06
-3.51095e-06
-3.53534e-06
-3.55927e-06
-3.58275e-06
-3.6058e-06
-3.6284e-06
-3.65058e-06
-3.67233e-06
-3.69365e-06
-3.71456e-06
-3.73506e-06
-3.75515e-06
-3.77484e-06
-3.79414e-06
-3.81304e-06
-3.83156e-06
-3.8497e-06
-3.86747e-06
-3.88486e-06
-3.90188e-06
-3.91855e-06
-3.93486e-06
-3.95082e-06
-3.96643e-06
-3.9817e-06
-3.99664e-06
-4.01124e-06
-4.02552e-06
-4.03948e-06
-4.05312e-06
-4.06645e-06
-4.07947e-06
-4.09219e-06
-4.10461e-06
-4.11674e-06
-4.12858e-06
-4.14014e-06
-4.15142e-06
-4.16242e-06
-4.17316e-06
-4.18363e-06
-4.19384e-06
-4.2038e-06
-4.2135e-06
-4.22296e-06
-4.23218e-06
-4.24116e-06
-4.2499e-06
-4.25842e-06
-4.26671e-06
-4.27478e-06
-4.28264e-06
-4.29028e-06
-4.29772e-06
-4.30495e-06
-4.31199e-06
-4.31883e-06
-4.32547e-06
-4.33194e-06
-4.33821e-06
-4.34431e-06
-4.35024e-06
-4.35599e-06
-4.36158e-06
-4.367e-06
-4.37226e-06
-4.37736e-06
-4.38231e-06
-4.38712e-06
-4.39177e-06
-4.39629e-06
-4.40066e-06
-4.4049e-06
-4.40901e-06
-4.41299e-06
-4.41684e-06
-4.42057e-06
-4.42419e-06
-4.42768e-06
-4.43106e-06
-4.43433e-06
-4.4375e-06
-4.44056e-06
-4.44351e-06
-4.44637e-06
-4.44914e-06
-4.45181e-06
-4.45437e-06
-4.45684e-06
-4.45923e-06
-4.46155e-06
-4.46379e-06
-4.46594e-06
-4.46805e-06
-4.47006e-06
-4.472e-06
-4.47385e-06
-4.47564e-06
-4.47737e-06
-4.47904e-06
-4.48065e-06
-4.48219e-06
-4.48369e-06
-4.48512e-06
-4.48652e-06
-4.48786e-06
-4.48914e-06
-4.49037e-06
-4.49156e-06
-4.4927e-06
-4.49379e-06
-4.49484e-06
-4.49585e-06
-4.49682e-06
-4.49775e-06
-4.49865e-06
-4.4995e-06
-4.50032e-06
-4.5011e-06
-4.50186e-06
-4.50258e-06
-4.50327e-06
-4.50394e-06
-4.50458e-06
-4.50519e-06
-4.50578e-06
-4.50634e-06
-4.50688e-06
-4.50739e-06
-4.50789e-06
-4.50836e-06
-4.50881e-06
-4.50924e-06
-4.50965e-06
-4.51004e-06
-4.51041e-06
-4.51077e-06
-4.51111e-06
-4.51144e-06
-4.51175e-06
-4.51205e-06
-4.51233e-06
-4.5126e-06
-4.51286e-06
-4.51311e-06
-4.51334e-06
-4.51357e-06
-4.51378e-06
-4.51398e-06
-4.51417e-06
-4.51436e-06
-4.51453e-06
-4.5147e-06
-4.51486e-06
-4.51501e-06
-4.51515e-06
-4.51528e-06
-4.51541e-06
-4.51553e-06
-4.51565e-06
-4.51576e-06
-4.51586e-06
-4.51596e-06
-4.51606e-06
-4.51614e-06
-4.51623e-06
-4.51631e-06
-4.51638e-06
-4.51645e-06
-4.51652e-06
-4.51658e-06
-4.51664e-06
-4.5167e-06
-4.51675e-06
-4.5168e-06
-4.51685e-06
-4.51689e-06
-4.51693e-06
-4.51697e-06
-4.51701e-06
-4.51704e-06
-4.51707e-06
-4.5171e-06
-4.51713e-06
-4.51716e-06
-4.51718e-06
-4.51721e-06
-4.51723e-06
-4.51724e-06
-4.51726e-06
-4.51728e-06
-4.5173e-06
-4.51731e-06
-4.51732e-06
-4.51734e-06
-4.51735e-06
-4.51736e-06
-4.51736e-06
-4.51737e-06
-4.51738e-06
-4.51739e-06
-4.51739e-06
-4.5174e-06
-4.5174e-06
-4.51741e-06
-4.51741e-06
-4.51741e-06
-4.51741e-06
-4.51742e-06
-4.51742e-06
-4.51742e-06
-4.51742e-06
-4.51742e-06
-4.51742e-06
-4.51742e-06
-4.51742e-06
-4.51741e-06
-4.51741e-06
-4.51741e-06
-4.51741e-06
-4.51741e-06
-4.5174e-06
-4.5174e-06
-4.5174e-06
-4.51739e-06
-4.51739e-06
-4.51739e-06
-4.51739e-06
-4.51738e-06
-4.51738e-06
-4.51738e-06
-4.51737e-06
-4.51737e-06
-4.51736e-06
-4.51736e-06
-4.51736e-06
-4.51735e-06
-4.51735e-06
-4.51734e-06
-4.51734e-06
-4.51734e-06
-4.51733e-06
-4.51733e-06
-4.51733e-06
-4.51732e-06
-4.51732e-06
-4.51731e-06
-4.51731e-06
-4.51731e-06
-4.5173e-06
-4.5173e-06
-4.5173e-06
-4.51729e-06
-4.51729e-06
-4.51729e-06
-4.51728e-06
-4.51728e-06
-4.51728e-06
-4.51727e-06
-4.51727e-06
-4.51727e-06
-4.51727e-06
-4.51727e-06
-4.51726e-06
-4.51726e-06
-4.51726e-06
-4.51726e-06
-4.51725e-06
-4.51725e-06
-4.51725e-06
-4.51725e-06
-4.51725e-06
-4.51724e-06
-4.51724e-06
-4.51724e-06
-4.51724e-06
-4.51724e-06
-4.51724e-06
-4.51724e-06
-4.51723e-06
-4.51723e-06
-4.51723e-06
-4.51723e-06
-4.51723e-06
-4.51723e-06
-4.51723e-06
-4.51723e-06
-4.51723e-06
-4.51723e-06
-4.51723e-06
-4.51723e-06
-4.51723e-06
-4.51722e-06
-4.51722e-06
-4.51722e-06
-4.51722e-06
-4.51722e-06
-4.51722e-06
-4.51722e-06
-4.51722e-06
-4.51722e-06
-4.51722e-06
-4.51723e-06
-4.51723e-06
-4.51722e-06
-4.51723e-06
-4.51723e-06
-4.51723e-06
-4.51723e-06
-4.51723e-06
-4.51723e-06
-4.51723e-06
-4.51723e-06
-4.51723e-06
-4.51723e-06
-4.51723e-06
-4.51723e-06
-4.51723e-06
-4.51723e-06
-4.51723e-06
-4.51723e-06
-4.51723e-06
-4.51723e-06
-4.51723e-06
-4.51723e-06
-4.51723e-06
-4.51724e-06
-4.51724e-06
-4.51724e-06
-4.51724e-06
-4.51724e-06
-4.51724e-06
-4.51724e-06
-4.51724e-06
-4.51724e-06
-4.51724e-06
-4.51724e-06
-4.51724e-06
-4.51724e-06
-4.51724e-06
-4.51724e-06
-4.51724e-06
-4.51724e-06
-4.51724e-06
-4.51724e-06
-4.51724e-06
-4.51724e-06
-4.51724e-06
-4.51724e-06
-4.51725e-06
-4.51725e-06
-4.51725e-06
-4.51725e-06
-4.51725e-06
-4.51725e-06
-4.51725e-06
-4.51725e-06
-4.51725e-06
-4.51725e-06
-4.51725e-06
-4.51725e-06
-4.51725e-06
-4.51725e-06
-4.51725e-06
-4.51725e-06
-4.51725e-06
-4.51725e-06
-4.51725e-06
-4.51725e-06
-4.51725e-06
-4.51725e-06
-4.51725e-06
-4.51725e-06
-4.51725e-06
-4.51725e-06
-4.51725e-06
-4.51725e-06
-4.51725e-06
-4.51725e-06
-4.51725e-06
-4.51725e-06
-4.51725e-06
-4.51725e-06
-4.51725e-06
-4.51725e-06
-4.51725e-06
-4.51725e-06
-4.51725e-06
-4.51725e-06
-4.51725e-06
-4.51725e-06
-4.51725e-06
-4.51725e-06
-4.51725e-06
-4.51724e-06
-4.51724e-06
-4.51724e-06
-4.51724e-06
-4.51724e-06
-4.51724e-06
-4.51724e-06
-4.51724e-06
-4.51724e-06
-4.51724e-06
-4.51724e-06
-4.51724e-06
-4.51724e-06
-4.51724e-06
-4.51724e-06
-4.51724e-06
-4.51724e-06
-4.51724e-06
-4.51724e-06
-4.51724e-06
-4.51724e-06
-4.51724e-06
-4.51724e-06
-4.51724e-06
-4.51724e-06
-4.51724e-06
-4.51724e-06
-4.51724e-06
-4.51724e-06
-4.51724e-06
-4.51724e-06
-4.51724e-06
-4.51724e-06
-4.51724e-06
-4.51724e-06
-4.51724e-06
-4.51724e-06
-4.51724e-06
-4.51724e-06
-4.51724e-06
-4.51723e-06
-4.51723e-06
-4.51724e-06
-4.51723e-06
-4.51723e-06
-4.51723e-06
-4.51723e-06
-4.51723e-06
-4.51723e-06
-4.51723e-06
-4.51723e-06
-4.51723e-06
-4.51723e-06
-4.51723e-06
-4.51723e-06
-4.51723e-06
-4.51723e-06
-4.51723e-06
-4.51723e-06
-4.51723e-06
-4.51722e-06
-4.51722e-06
-4.51722e-06
-4.51722e-06
-4.51722e-06
-4.51722e-06
-4.51722e-06
-4.51722e-06
-4.51722e-06
-4.51722e-06
-4.51722e-06
-4.51722e-06
-4.51722e-06
-4.51722e-06
-4.51722e-06
-4.51722e-06
-4.51722e-06
-4.51722e-06
-4.51721e-06
-4.51721e-06
-4.51721e-06
-4.51721e-06
-4.51721e-06
-4.51721e-06
-4.51721e-06
-4.51721e-06
-4.51721e-06
-4.51721e-06
-4.51721e-06
-4.51721e-06
-4.5172e-06
-4.5172e-06
-4.5172e-06
-4.5172e-06
-4.5172e-06
-4.5172e-06
-4.5172e-06
-4.5172e-06
-4.5172e-06
-4.5172e-06
-4.5172e-06
-4.5172e-06
-4.5172e-06
-4.5172e-06
-4.5172e-06
-4.5172e-06
-4.5172e-06
-4.5172e-06
-4.5172e-06
-4.5172e-06
-4.5172e-06
-4.5172e-06
-4.5172e-06
-4.5172e-06
-4.5172e-06
-4.5172e-06
-4.5172e-06
-4.5172e-06
-4.5172e-06
-4.5172e-06
-4.5172e-06
-4.5172e-06
-4.5172e-06
-4.5172e-06
-4.5172e-06
-4.5172e-06
-4.5172e-06
-4.5172e-06
-4.5172e-06
-4.5172e-06
-4.5172e-06
-4.5172e-06
-4.5172e-06
-4.5172e-06
-4.5172e-06
-4.5172e-06
-4.5172e-06
-4.5172e-06
-4.5172e-06
-4.5172e-06
-4.5172e-06
-4.5172e-06
-4.5172e-06
-4.5172e-06
-4.5172e-06
-4.5172e-06
-4.5172e-06
-4.5172e-06
-4.5172e-06
-4.5172e-06
-4.5172e-06
-4.5172e-06
-4.5172e-06
-4.5172e-06
-4.5172e-06
-4.5172e-06
-4.5172e-06
-4.5172e-06
-4.5172e-06
-4.5172e-06
-4.5172e-06
-4.5172e-06
-4.5172e-06
-4.5172e-06
-4.5172e-06
-4.5172e-06
-4.5172e-06
-4.5172e-06
-4.5172e-06
-4.5172e-06
-4.5172e-06
-4.5172e-06
-4.5172e-06
-4.5172e-06
-4.5172e-06
-4.5172e-06
-4.5172e-06
-4.5172e-06
-4.5172e-06
-4.5172e-06
-4.5172e-06
-4.5172e-06
-4.51719e-06
-4.51719e-06
-4.51719e-06
-4.51719e-06
-4.51719e-06
-4.51719e-06
-4.51719e-06
-4.51719e-06
-4.51719e-06
-4.51719e-06
-4.51719e-06
-4.51718e-06
-4.51718e-06
-4.51718e-06
-4.51718e-06
-4.51718e-06
-4.51718e-06
-4.51718e-06
-4.51718e-06
-4.51718e-06
-4.51717e-06
-4.51717e-06
-4.51717e-06
-4.51717e-06
-4.51717e-06
-4.51717e-06
-4.51717e-06
-4.51717e-06
-4.51716e-06
-4.51716e-06
-4.51716e-06
-4.51716e-06
-4.51716e-06
-4.51716e-06
-4.51716e-06
-4.51716e-06
-4.51716e-06
-4.51715e-06
-4.51715e-06
-4.51715e-06
-4.51715e-06
-4.51715e-06
-4.51715e-06
-4.51715e-06
-4.51715e-06
-4.51715e-06
-4.51714e-06
-4.51714e-06
-4.51714e-06
-4.51714e-06
-4.51714e-06
-4.51714e-06
-4.51714e-06
-4.51714e-06
-4.51713e-06
-4.51713e-06
-4.51713e-06
-4.51713e-06
-4.51713e-06
-4.51713e-06
-4.51713e-06
-4.51713e-06
-4.51713e-06
-4.51713e-06
-4.51713e-06
-4.51713e-06
-4.51713e-06
-4.51713e-06
-4.51714e-06
-4.51714e-06
-4.51714e-06
-4.51714e-06
-4.51714e-06
-4.51714e-06
-4.51715e-06
-4.51715e-06
-4.51715e-06
-4.51715e-06
-4.51715e-06
-4.51715e-06
-4.51716e-06
-4.51716e-06
-4.51716e-06
-4.51717e-06
-4.51717e-06
-4.51718e-06
-4.51718e-06
-4.51719e-06
-4.51719e-06
-4.5172e-06
-4.51721e-06
-4.51721e-06
-4.51722e-06
-4.51723e-06
-4.51724e-06
-4.51724e-06
-4.51725e-06
-4.51726e-06
-4.51728e-06
-4.51729e-06
-4.5173e-06
-4.51731e-06
-4.51733e-06
-4.51734e-06
-4.51736e-06
-4.51738e-06
-4.5174e-06
-4.51742e-06
-4.51744e-06
-4.51747e-06
-4.51749e-06
-4.51752e-06
-4.51755e-06
-4.51758e-06
-4.51762e-06
-4.51765e-06
-4.51769e-06
-4.51774e-06
-4.51778e-06
-4.51783e-06
-4.51789e-06
-4.51795e-06
-4.51801e-06
-4.51808e-06
-4.51815e-06
-4.51822e-06
-4.51831e-06
-4.51839e-06
-4.51849e-06
-4.51859e-06
-4.5187e-06
-4.51882e-06
-4.51894e-06
-4.51908e-06
-4.51922e-06
-4.51938e-06
-4.51955e-06
-4.51972e-06
-4.51991e-06
-4.52012e-06
-4.52034e-06
-4.52057e-06
-4.52082e-06
-4.52109e-06
-4.52137e-06
-4.52168e-06
-4.52201e-06
-4.52236e-06
-4.52273e-06
-4.52313e-06
-4.52355e-06
-4.524e-06
-4.52448e-06
-4.525e-06
-4.52555e-06
-4.52613e-06
-4.52675e-06
-4.52741e-06
-4.52812e-06
-4.52886e-06
-4.52966e-06
-4.53051e-06
-4.53141e-06
-4.53236e-06
-4.53337e-06
-4.53445e-06
-4.53559e-06
-4.5368e-06
-4.53808e-06
-4.53944e-06
-4.54088e-06
-4.54241e-06
-4.54402e-06
-4.54573e-06
-4.54753e-06
-4.54944e-06
-4.55146e-06
-4.55359e-06
-4.55585e-06
-4.55822e-06
-4.56073e-06
-4.56338e-06
-4.56617e-06
-4.56911e-06
-4.57221e-06
-4.57548e-06
-4.57891e-06
-4.58253e-06
-4.58634e-06
-4.59034e-06
-4.59455e-06
-4.59898e-06
-4.60363e-06
-4.60851e-06
-4.61363e-06
-4.61901e-06
-4.62465e-06
-4.63057e-06
-4.63677e-06
-4.64327e-06
-4.65007e-06
-4.65719e-06
-4.66465e-06
-4.67245e-06
-4.68061e-06
-4.68914e-06
-4.69805e-06
-4.70736e-06
-4.71709e-06
-4.72724e-06
-4.73783e-06
-4.74888e-06
-4.76041e-06
-4.77242e-06
-4.78493e-06
-4.79797e-06
-4.81154e-06
-4.82567e-06
-4.84037e-06
-4.85566e-06
-4.87156e-06
-4.88809e-06
-4.90526e-06
-4.92309e-06
-4.94161e-06
-4.96083e-06
-4.98077e-06
-5.00146e-06
-5.02291e-06
-5.04514e-06
-5.06817e-06
-5.09203e-06
-5.11674e-06
-5.14232e-06
-5.16879e-06
-5.19617e-06
-5.22449e-06
-5.25376e-06
-5.28401e-06
-5.31527e-06
-5.34756e-06
-5.38089e-06
-5.4153e-06
-5.45081e-06
-5.48744e-06
-5.52522e-06
-5.56417e-06
-5.60431e-06
-5.64567e-06
-5.68828e-06
-5.73216e-06
-5.77734e-06
-5.82384e-06
-5.87169e-06
-5.9209e-06
-5.97152e-06
-6.02357e-06
-6.07707e-06
-6.13204e-06
-6.18853e-06
-6.24654e-06
-6.30612e-06
-6.36729e-06
-6.43007e-06
-6.49449e-06
-6.56059e-06
-6.62839e-06
-6.69792e-06
-6.7692e-06
-6.84228e-06
-6.91717e-06
-6.99391e-06
-7.07253e-06
-7.15306e-06
-7.23552e-06
-7.31996e-06
-7.40641e-06
-7.49489e-06
-7.58544e-06
-7.6781e-06
-7.77289e-06
-7.86986e-06
-7.96903e-06
-8.07046e-06
-8.17417e-06
-8.2802e-06
-8.38859e-06
-8.49938e-06
-8.61262e-06
-8.72834e-06
-8.8466e-06
-8.96742e-06
-9.09087e-06
-9.21699e-06
-9.34583e-06
-9.47744e-06
-9.61187e-06
-9.74919e-06
-9.88945e-06
-1.00327e-05
-1.0179e-05
-1.03285e-05
-1.04811e-05
-1.06371e-05
-1.07964e-05
-1.09592e-05
-1.11255e-05
-1.12955e-05
-1.14693e-05
-1.16471e-05
-1.18269e-05
-1.20107e-05
-1.21988e-05
-1.23912e-05
-1.25879e-05
-1.27891e-05
-1.29948e-05
-1.32051e-05
-1.34201e-05
-1.36399e-05
-1.38646e-05
-1.40941e-05
-1.43286e-05
-1.45682e-05
-1.48129e-05
-1.50627e-05
-1.53175e-05
-1.55774e-05
-1.58422e-05
-1.61117e-05
-1.63858e-05
-1.66639e-05
-1.69458e-05
-1.72306e-05
-1.75177e-05
-1.7806e-05
-1.80941e-05
-1.83804e-05
-1.86628e-05
-1.89387e-05
-1.92051e-05
-1.9458e-05
-1.96926e-05
-1.99034e-05
-2.00835e-05
-2.02247e-05
-2.03176e-05
)
;

boundaryField
{
    fixedWall
    {
        type            calculated;
        value           uniform 0;
    }
    outlet
    {
        type            calculated;
        value           uniform -2.03514e-05;
    }
    defaultFaces
    {
        type            empty;
    }
}


// ************************************************************************* //
