/*--------------------------------*- C++ -*----------------------------------*\
| =========                 |                                                 |
| \\      /  F ield         | OpenFOAM: The Open Source CFD Toolbox           |
|  \\    /   O peration     | Version:  2406                                  |
|   \\  /    A nd           | Website:  www.openfoam.com                      |
|    \\/     M anipulation  |                                                 |
\*---------------------------------------------------------------------------*/
FoamFile
{
    version     2.0;
    format      ascii;
    arch        "LSB;label=32;scalar=64";
    class       volScalarField;
    location    "2.9";
    object      CO2;
}
// * * * * * * * * * * * * * * * * * * * * * * * * * * * * * * * * * * * * * //

dimensions      [0 0 0 0 0 0 0];

internalField   nonuniform List<scalar> 
1000
(
0.0709257
0.0709257
0.0709257
0.0709257
0.0709257
0.0709257
0.0709257
0.0709258
0.0709258
0.0709258
0.0709258
0.0709258
0.0709258
0.0709258
0.0709258
0.0709259
0.0709259
0.0709259
0.0709259
0.0709259
0.0709259
0.0709259
0.070926
0.070926
0.070926
0.070926
0.070926
0.070926
0.0709261
0.0709261
0.0709261
0.0709261
0.0709261
0.0709261
0.0709261
0.0709262
0.0709262
0.0709262
0.0709262
0.0709262
0.0709262
0.0709262
0.0709262
0.0709262
0.0709262
0.0709263
0.0709263
0.0709263
0.0709263
0.0709263
0.0709263
0.0709263
0.0709263
0.0709263
0.0709263
0.0709263
0.0709263
0.0709263
0.0709263
0.0709263
0.0709263
0.0709263
0.0709263
0.0709263
0.0709263
0.0709263
0.0709263
0.0709263
0.0709263
0.0709263
0.0709263
0.0709263
0.0709263
0.0709263
0.0709263
0.0709263
0.0709263
0.0709263
0.0709263
0.0709263
0.0709263
0.0709263
0.0709263
0.0709263
0.0709263
0.0709263
0.0709263
0.0709263
0.0709263
0.0709263
0.0709263
0.0709263
0.0709263
0.0709263
0.0709263
0.0709263
0.0709263
0.0709263
0.0709263
0.0709263
0.0709263
0.0709263
0.0709263
0.0709263
0.0709263
0.0709263
0.0709263
0.0709263
0.0709263
0.0709263
0.0709263
0.0709263
0.0709263
0.0709263
0.0709262
0.0709262
0.0709262
0.0709262
0.0709262
0.0709262
0.0709262
0.0709262
0.0709262
0.0709262
0.0709262
0.0709262
0.0709262
0.0709262
0.0709262
0.0709262
0.0709262
0.0709262
0.0709262
0.0709262
0.0709262
0.0709262
0.0709262
0.0709262
0.0709262
0.0709262
0.0709262
0.0709262
0.0709262
0.0709262
0.0709262
0.0709262
0.0709262
0.0709262
0.0709262
0.0709262
0.0709262
0.0709262
0.0709262
0.0709262
0.0709262
0.0709262
0.0709262
0.0709262
0.0709262
0.0709262
0.0709262
0.0709261
0.0709261
0.0709261
0.0709261
0.0709261
0.0709261
0.0709261
0.0709261
0.0709261
0.0709261
0.0709261
0.0709261
0.0709261
0.0709261
0.0709261
0.0709261
0.0709261
0.0709261
0.0709261
0.0709261
0.0709261
0.0709261
0.0709261
0.0709261
0.0709261
0.0709261
0.0709261
0.0709261
0.0709261
0.0709261
0.0709261
0.0709261
0.0709261
0.0709261
0.0709261
0.070926
0.070926
0.070926
0.070926
0.070926
0.070926
0.070926
0.070926
0.070926
0.070926
0.070926
0.070926
0.070926
0.070926
0.070926
0.070926
0.070926
0.070926
0.070926
0.070926
0.070926
0.070926
0.070926
0.070926
0.070926
0.070926
0.070926
0.070926
0.0709259
0.0709259
0.0709259
0.0709259
0.0709259
0.0709259
0.0709259
0.0709259
0.0709259
0.0709259
0.0709259
0.0709259
0.0709259
0.0709259
0.0709259
0.0709259
0.0709259
0.0709259
0.0709259
0.0709259
0.0709259
0.0709259
0.0709258
0.0709258
0.0709258
0.0709258
0.0709258
0.0709258
0.0709258
0.0709258
0.0709258
0.0709258
0.0709258
0.0709258
0.0709258
0.0709258
0.0709258
0.0709258
0.0709258
0.0709258
0.0709258
0.0709257
0.0709257
0.0709257
0.0709257
0.0709257
0.0709257
0.0709257
0.0709257
0.0709257
0.0709257
0.0709257
0.0709257
0.0709257
0.0709257
0.0709257
0.0709256
0.0709256
0.0709256
0.0709256
0.0709256
0.0709256
0.0709256
0.0709256
0.0709256
0.0709256
0.0709256
0.0709256
0.0709256
0.0709255
0.0709255
0.0709255
0.0709255
0.0709255
0.0709255
0.0709255
0.0709255
0.0709255
0.0709255
0.0709255
0.0709254
0.0709254
0.0709254
0.0709254
0.0709254
0.0709254
0.0709254
0.0709254
0.0709254
0.0709254
0.0709253
0.0709253
0.0709253
0.0709253
0.0709253
0.0709253
0.0709253
0.0709253
0.0709252
0.0709252
0.0709252
0.0709252
0.0709252
0.0709252
0.0709252
0.0709252
0.0709251
0.0709251
0.0709251
0.0709251
0.0709251
0.0709251
0.070925
0.070925
0.070925
0.070925
0.070925
0.070925
0.0709249
0.0709249
0.0709249
0.0709249
0.0709249
0.0709248
0.0709248
0.0709248
0.0709248
0.0709248
0.0709247
0.0709247
0.0709247
0.0709247
0.0709247
0.0709246
0.0709246
0.0709246
0.0709246
0.0709245
0.0709245
0.0709245
0.0709244
0.0709244
0.0709244
0.0709244
0.0709243
0.0709243
0.0709243
0.0709242
0.0709242
0.0709242
0.0709241
0.0709241
0.0709241
0.070924
0.070924
0.0709239
0.0709239
0.0709239
0.0709238
0.0709238
0.0709237
0.0709237
0.0709236
0.0709236
0.0709235
0.0709235
0.0709234
0.0709233
0.0709233
0.0709232
0.0709232
0.0709231
0.070923
0.0709229
0.0709229
0.0709228
0.0709227
0.0709226
0.0709225
0.0709225
0.0709224
0.0709223
0.0709222
0.0709221
0.0709219
0.0709218
0.0709217
0.0709216
0.0709214
0.0709213
0.0709211
0.070921
0.0709208
0.0709206
0.0709204
0.0709202
0.07092
0.0709198
0.0709195
0.0709193
0.070919
0.0709187
0.0709184
0.0709181
0.0709177
0.0709173
0.0709169
0.0709164
0.0709159
0.0709153
0.0709146
0.0709139
0.0709131
0.0709122
0.0709112
0.07091
0.0709087
0.0709071
0.0709052
0.0709029
0.0709001
0.0708967
0.0708924
0.0708868
0.0708794
0.0708692
0.0708544
0.0708312
0.0707912
0.0707148
0.0705496
0.0701205
0.0687884
0.064017
0.0364982
0.0187816
0.00957293
0.00484038
0.00243406
0.00121986
0.000610055
0.000304658
0.000151986
7.57604e-05
3.77397e-05
1.87903e-05
9.35203e-06
4.65334e-06
2.31503e-06
1.15166e-06
5.72946e-07
2.85072e-07
1.41887e-07
7.06476e-08
3.52111e-08
1.7599e-08
8.79681e-09
4.45795e-09
2.24255e-09
1.23361e-09
8.42621e-10
5.28159e-10
3.19118e-10
2.20001e-10
1.67548e-10
1.44244e-10
1.32683e-10
1.27046e-10
1.22529e-10
1.20131e-10
1.18989e-10
1.18332e-10
1.17764e-10
1.17578e-10
1.17412e-10
1.17318e-10
1.17267e-10
1.17236e-10
1.17225e-10
1.17216e-10
1.1721e-10
1.17208e-10
1.17207e-10
1.17206e-10
1.17206e-10
1.17206e-10
1.17206e-10
1.17206e-10
1.17206e-10
1.17207e-10
1.17207e-10
1.17207e-10
1.17207e-10
1.17208e-10
1.17208e-10
1.17208e-10
1.17209e-10
1.17209e-10
1.17209e-10
1.1721e-10
1.1721e-10
1.1721e-10
1.1721e-10
1.17211e-10
1.17211e-10
1.17211e-10
1.17212e-10
1.17212e-10
1.17212e-10
1.17212e-10
1.17213e-10
1.17213e-10
1.17213e-10
1.17214e-10
1.17214e-10
1.17214e-10
1.17214e-10
1.17215e-10
1.17215e-10
1.17215e-10
1.17216e-10
1.17216e-10
1.17216e-10
1.17217e-10
1.17217e-10
1.17217e-10
1.17218e-10
1.17218e-10
1.17218e-10
1.17219e-10
1.17219e-10
1.17219e-10
1.17219e-10
1.1722e-10
1.1722e-10
1.1722e-10
1.17221e-10
1.17221e-10
1.17221e-10
1.17221e-10
1.17222e-10
1.17222e-10
1.17222e-10
1.17223e-10
1.17223e-10
1.17223e-10
1.17224e-10
1.17224e-10
1.17224e-10
1.17224e-10
1.17225e-10
1.17225e-10
1.17225e-10
1.17226e-10
1.17226e-10
1.17226e-10
1.17226e-10
1.17227e-10
1.17227e-10
1.17227e-10
1.17228e-10
1.17228e-10
1.17228e-10
1.17229e-10
1.17229e-10
1.17229e-10
1.17229e-10
1.1723e-10
1.1723e-10
1.1723e-10
1.17231e-10
1.17231e-10
1.17231e-10
1.17232e-10
1.17232e-10
1.17232e-10
1.17233e-10
1.17233e-10
1.17233e-10
1.17233e-10
1.17234e-10
1.17234e-10
1.17234e-10
1.17235e-10
1.17235e-10
1.17235e-10
1.17236e-10
1.17236e-10
1.17236e-10
1.17237e-10
1.17237e-10
1.17237e-10
1.17237e-10
1.17238e-10
1.17238e-10
1.17238e-10
1.17239e-10
1.17239e-10
1.17239e-10
1.1724e-10
1.1724e-10
1.1724e-10
1.1724e-10
1.17241e-10
1.17241e-10
1.17241e-10
1.17242e-10
1.17242e-10
1.17242e-10
1.17243e-10
1.17243e-10
1.17243e-10
1.17244e-10
1.17244e-10
1.17244e-10
1.17244e-10
1.17245e-10
1.17245e-10
1.17245e-10
1.17246e-10
1.17246e-10
1.17246e-10
1.17247e-10
1.17247e-10
1.17247e-10
1.17247e-10
1.17248e-10
1.17248e-10
1.17248e-10
1.17249e-10
1.17249e-10
1.17249e-10
1.1725e-10
1.1725e-10
1.1725e-10
1.1725e-10
1.17251e-10
1.17251e-10
1.17251e-10
1.17252e-10
1.17252e-10
1.17253e-10
1.17253e-10
1.17253e-10
1.17254e-10
1.17254e-10
1.17254e-10
1.17255e-10
1.17255e-10
1.17255e-10
1.17255e-10
1.17256e-10
1.17256e-10
1.17256e-10
1.17257e-10
1.17257e-10
1.17257e-10
1.17258e-10
1.17258e-10
1.17258e-10
1.17258e-10
1.17259e-10
1.17259e-10
1.17259e-10
1.1726e-10
1.1726e-10
1.1726e-10
1.17261e-10
1.17261e-10
1.17261e-10
1.17262e-10
1.17262e-10
1.17262e-10
1.17262e-10
1.17263e-10
1.17263e-10
1.17263e-10
1.17264e-10
1.17264e-10
1.17264e-10
1.17265e-10
1.17265e-10
1.17265e-10
1.17266e-10
1.17266e-10
1.17266e-10
1.17267e-10
1.17267e-10
1.17267e-10
1.17268e-10
1.17268e-10
1.17268e-10
1.17269e-10
1.17269e-10
1.17269e-10
1.1727e-10
1.1727e-10
1.1727e-10
1.1727e-10
1.17271e-10
1.17271e-10
1.17271e-10
1.17272e-10
1.17272e-10
1.17272e-10
1.17273e-10
1.17273e-10
1.17273e-10
1.17274e-10
1.17274e-10
1.17274e-10
1.17275e-10
1.17275e-10
1.17275e-10
1.17276e-10
1.17276e-10
1.17276e-10
1.17277e-10
1.17277e-10
1.17277e-10
1.17278e-10
1.17278e-10
1.17278e-10
1.17278e-10
1.17279e-10
1.17279e-10
1.1728e-10
1.1728e-10
1.1728e-10
1.17281e-10
1.17281e-10
1.17281e-10
1.17281e-10
1.17282e-10
1.17282e-10
1.17282e-10
1.17283e-10
1.17283e-10
1.17283e-10
1.17284e-10
1.17284e-10
1.17284e-10
1.17285e-10
1.17285e-10
1.17285e-10
1.17286e-10
1.17286e-10
1.17286e-10
1.17286e-10
1.17287e-10
1.17287e-10
1.17288e-10
1.17288e-10
1.17288e-10
1.17289e-10
1.17289e-10
1.17289e-10
1.1729e-10
1.1729e-10
1.1729e-10
1.17291e-10
1.17291e-10
1.17291e-10
1.17291e-10
1.17292e-10
1.17292e-10
1.17292e-10
1.17293e-10
1.17293e-10
1.17293e-10
1.17294e-10
1.17294e-10
1.17294e-10
1.17295e-10
1.17295e-10
1.17295e-10
1.17296e-10
1.17296e-10
1.17296e-10
1.17297e-10
1.17297e-10
1.17297e-10
1.17298e-10
1.17298e-10
1.17298e-10
1.17299e-10
1.17299e-10
1.17299e-10
1.173e-10
1.173e-10
1.173e-10
1.17301e-10
1.17301e-10
1.17301e-10
1.17302e-10
1.17302e-10
1.17302e-10
1.17303e-10
1.17303e-10
1.17303e-10
1.17303e-10
1.17304e-10
1.17304e-10
1.17305e-10
1.17305e-10
1.17305e-10
1.17306e-10
1.17306e-10
1.17306e-10
1.17306e-10
1.17307e-10
1.17307e-10
1.17307e-10
1.17308e-10
1.17308e-10
1.17309e-10
1.17309e-10
1.17309e-10
1.17309e-10
1.1731e-10
1.1731e-10
1.1731e-10
1.17311e-10
1.17311e-10
1.17311e-10
1.17312e-10
1.17312e-10
1.17312e-10
1.17313e-10
1.17313e-10
1.17313e-10
1.17314e-10
1.17314e-10
1.17314e-10
1.17315e-10
1.17315e-10
1.17315e-10
1.17316e-10
1.17316e-10
1.17316e-10
1.17317e-10
1.17317e-10
1.17317e-10
1.17318e-10
1.17318e-10
1.17318e-10
1.17319e-10
1.17319e-10
1.17319e-10
1.1732e-10
1.1732e-10
1.1732e-10
1.17321e-10
1.17321e-10
1.17321e-10
1.17322e-10
1.17322e-10
1.17322e-10
1.17323e-10
1.17323e-10
1.17323e-10
1.17324e-10
1.17324e-10
1.17324e-10
1.17325e-10
1.17325e-10
1.17325e-10
1.17326e-10
1.17326e-10
1.17326e-10
1.17327e-10
1.17327e-10
1.17327e-10
1.17328e-10
1.17328e-10
1.17328e-10
1.17329e-10
1.17329e-10
1.17329e-10
1.1733e-10
1.1733e-10
1.1733e-10
1.17331e-10
1.17331e-10
1.17331e-10
1.17332e-10
1.17332e-10
1.17332e-10
1.17333e-10
1.17333e-10
1.17333e-10
1.17334e-10
1.17334e-10
1.17334e-10
1.17335e-10
1.17335e-10
1.17335e-10
1.17336e-10
1.17336e-10
1.17336e-10
1.17336e-10
1.17337e-10
1.17337e-10
1.17338e-10
1.17338e-10
1.17338e-10
1.17338e-10
1.17339e-10
1.17339e-10
1.1734e-10
1.1734e-10
1.17341e-10
1.17341e-10
1.17341e-10
1.17342e-10
1.17342e-10
1.17342e-10
1.17343e-10
1.17343e-10
1.17343e-10
1.17344e-10
1.17344e-10
1.17344e-10
1.17345e-10
1.17345e-10
1.17345e-10
1.17346e-10
1.17346e-10
1.17346e-10
1.17346e-10
1.17347e-10
1.17347e-10
1.17347e-10
1.17348e-10
1.17348e-10
1.17348e-10
1.17349e-10
1.17349e-10
1.17349e-10
1.1735e-10
1.1735e-10
1.1735e-10
1.17351e-10
1.17351e-10
1.17351e-10
1.17352e-10
1.17352e-10
1.17352e-10
1.17353e-10
1.17353e-10
1.17353e-10
1.17354e-10
1.17354e-10
1.17354e-10
1.17355e-10
1.17355e-10
1.17355e-10
1.17356e-10
1.17356e-10
1.17357e-10
1.17357e-10
1.17357e-10
1.17357e-10
1.17358e-10
1.17358e-10
1.17359e-10
1.17359e-10
1.17359e-10
1.1736e-10
1.1736e-10
1.1736e-10
1.17361e-10
1.17361e-10
1.17361e-10
1.17362e-10
1.17362e-10
)
;

boundaryField
{
    fixedWall
    {
        type            zeroGradient;
    }
    outlet
    {
        type            inletOutlet;
        inletValue      uniform 0;
        value           uniform 1.17362e-10;
    }
    defaultFaces
    {
        type            empty;
    }
}


// ************************************************************************* //
