/*--------------------------------*- C++ -*----------------------------------*\
| =========                 |                                                 |
| \\      /  F ield         | OpenFOAM: The Open Source CFD Toolbox           |
|  \\    /   O peration     | Version:  2406                                  |
|   \\  /    A nd           | Website:  www.openfoam.com                      |
|    \\/     M anipulation  |                                                 |
\*---------------------------------------------------------------------------*/
FoamFile
{
    version     2.0;
    format      ascii;
    arch        "LSB;label=32;scalar=64";
    class       volScalarField;
    location    "2.9";
    object      H2O;
}
// * * * * * * * * * * * * * * * * * * * * * * * * * * * * * * * * * * * * * //

dimensions      [0 0 0 0 0 0 0];

internalField   nonuniform List<scalar> 
1000
(
0.0580663
0.0580663
0.0580663
0.0580663
0.0580663
0.0580663
0.0580663
0.0580663
0.0580663
0.0580663
0.0580663
0.0580663
0.0580663
0.0580663
0.0580664
0.0580664
0.0580664
0.0580664
0.0580664
0.0580664
0.0580664
0.0580664
0.0580665
0.0580665
0.0580665
0.0580665
0.0580665
0.0580665
0.0580665
0.0580666
0.0580666
0.0580666
0.0580666
0.0580666
0.0580666
0.0580666
0.0580666
0.0580666
0.0580667
0.0580667
0.0580667
0.0580667
0.0580667
0.0580667
0.0580667
0.0580667
0.0580667
0.0580667
0.0580667
0.0580667
0.0580667
0.0580667
0.0580667
0.0580667
0.0580667
0.0580667
0.0580667
0.0580667
0.0580667
0.0580667
0.0580667
0.0580667
0.0580667
0.0580667
0.0580667
0.0580667
0.0580667
0.0580667
0.0580667
0.0580667
0.0580667
0.0580667
0.0580667
0.0580667
0.0580667
0.0580667
0.0580667
0.0580667
0.0580667
0.0580667
0.0580667
0.0580667
0.0580667
0.0580667
0.0580667
0.0580667
0.0580667
0.0580667
0.0580667
0.0580667
0.0580667
0.0580667
0.0580667
0.0580667
0.0580667
0.0580667
0.0580667
0.0580667
0.0580667
0.0580667
0.0580667
0.0580667
0.0580667
0.0580667
0.0580667
0.0580667
0.0580667
0.0580667
0.0580667
0.0580667
0.0580667
0.0580667
0.0580667
0.0580667
0.0580667
0.0580667
0.0580667
0.0580667
0.0580667
0.0580667
0.0580667
0.0580667
0.0580667
0.0580667
0.0580667
0.0580667
0.0580667
0.0580667
0.0580667
0.0580667
0.0580667
0.0580667
0.0580667
0.0580667
0.0580667
0.0580667
0.0580667
0.0580667
0.0580667
0.0580667
0.0580667
0.0580667
0.0580666
0.0580666
0.0580666
0.0580666
0.0580666
0.0580666
0.0580666
0.0580666
0.0580666
0.0580666
0.0580666
0.0580666
0.0580666
0.0580666
0.0580666
0.0580666
0.0580666
0.0580666
0.0580666
0.0580666
0.0580666
0.0580666
0.0580666
0.0580666
0.0580666
0.0580666
0.0580666
0.0580666
0.0580666
0.0580666
0.0580666
0.0580666
0.0580666
0.0580666
0.0580666
0.0580666
0.0580666
0.0580666
0.0580666
0.0580666
0.0580666
0.0580666
0.0580666
0.0580666
0.0580666
0.0580666
0.0580666
0.0580666
0.0580665
0.0580665
0.0580665
0.0580665
0.0580665
0.0580665
0.0580665
0.0580665
0.0580665
0.0580665
0.0580665
0.0580665
0.0580665
0.0580665
0.0580665
0.0580665
0.0580665
0.0580665
0.0580665
0.0580665
0.0580665
0.0580665
0.0580665
0.0580665
0.0580665
0.0580665
0.0580665
0.0580665
0.0580665
0.0580665
0.0580665
0.0580665
0.0580665
0.0580665
0.0580664
0.0580664
0.0580664
0.0580664
0.0580664
0.0580664
0.0580664
0.0580664
0.0580664
0.0580664
0.0580664
0.0580664
0.0580664
0.0580664
0.0580664
0.0580664
0.0580664
0.0580664
0.0580664
0.0580664
0.0580664
0.0580664
0.0580664
0.0580664
0.0580664
0.0580664
0.0580664
0.0580663
0.0580663
0.0580663
0.0580663
0.0580663
0.0580663
0.0580663
0.0580663
0.0580663
0.0580663
0.0580663
0.0580663
0.0580663
0.0580663
0.0580663
0.0580663
0.0580663
0.0580663
0.0580663
0.0580663
0.0580663
0.0580662
0.0580662
0.0580662
0.0580662
0.0580662
0.0580662
0.0580662
0.0580662
0.0580662
0.0580662
0.0580662
0.0580662
0.0580662
0.0580662
0.0580662
0.0580662
0.0580662
0.0580661
0.0580661
0.0580661
0.0580661
0.0580661
0.0580661
0.0580661
0.0580661
0.0580661
0.0580661
0.0580661
0.0580661
0.0580661
0.0580661
0.058066
0.058066
0.058066
0.058066
0.058066
0.058066
0.058066
0.058066
0.058066
0.058066
0.058066
0.058066
0.0580659
0.0580659
0.0580659
0.0580659
0.0580659
0.0580659
0.0580659
0.0580659
0.0580659
0.0580659
0.0580658
0.0580658
0.0580658
0.0580658
0.0580658
0.0580658
0.0580658
0.0580658
0.0580657
0.0580657
0.0580657
0.0580657
0.0580657
0.0580657
0.0580657
0.0580657
0.0580656
0.0580656
0.0580656
0.0580656
0.0580656
0.0580656
0.0580656
0.0580655
0.0580655
0.0580655
0.0580655
0.0580655
0.0580654
0.0580654
0.0580654
0.0580654
0.0580654
0.0580654
0.0580653
0.0580653
0.0580653
0.0580653
0.0580652
0.0580652
0.0580652
0.0580652
0.0580652
0.0580651
0.0580651
0.0580651
0.058065
0.058065
0.058065
0.058065
0.0580649
0.0580649
0.0580649
0.0580648
0.0580648
0.0580648
0.0580647
0.0580647
0.0580647
0.0580646
0.0580646
0.0580645
0.0580645
0.0580645
0.0580644
0.0580644
0.0580643
0.0580643
0.0580642
0.0580642
0.0580641
0.0580641
0.058064
0.0580639
0.0580639
0.0580638
0.0580637
0.0580637
0.0580636
0.0580635
0.0580634
0.0580633
0.0580633
0.0580632
0.0580631
0.058063
0.0580629
0.0580627
0.0580626
0.0580625
0.0580624
0.0580622
0.0580621
0.0580619
0.0580618
0.0580616
0.0580614
0.0580612
0.058061
0.0580608
0.0580605
0.0580603
0.05806
0.0580597
0.0580594
0.058059
0.0580586
0.0580582
0.0580577
0.0580572
0.0580566
0.0580559
0.0580552
0.0580544
0.0580534
0.0580523
0.058051
0.0580495
0.0580476
0.0580453
0.0580425
0.058039
0.0580344
0.0580283
0.05802
0.0580079
0.0579889
0.0579561
0.0578936
0.0577583
0.057407
0.0563165
0.0524102
0.0298807
0.0153764
0.00783727
0.00396277
0.00199275
0.000998688
0.000499447
0.000249421
0.00012443
6.20244e-05
3.08972e-05
1.53835e-05
7.65643e-06
3.80964e-06
1.89529e-06
9.42857e-07
4.69066e-07
2.33386e-07
1.16161e-07
5.78386e-08
2.8827e-08
1.44082e-08
7.20188e-09
3.64968e-09
1.83595e-09
1.00994e-09
6.89846e-10
4.32399e-10
2.61259e-10
1.80113e-10
1.3717e-10
1.18091e-10
1.08626e-10
1.04012e-10
1.00314e-10
9.83499e-11
9.74156e-11
9.68771e-11
9.64126e-11
9.62604e-11
9.61244e-11
9.60475e-11
9.60054e-11
9.59797e-11
9.59713e-11
9.59635e-11
9.59588e-11
9.59572e-11
9.59563e-11
9.59558e-11
9.59555e-11
9.59554e-11
9.59555e-11
9.59556e-11
9.59557e-11
9.5956e-11
9.59563e-11
9.59564e-11
9.59567e-11
9.5957e-11
9.59572e-11
9.59575e-11
9.59578e-11
9.59581e-11
9.59582e-11
9.59585e-11
9.59587e-11
9.59589e-11
9.59592e-11
9.59594e-11
9.59595e-11
9.59599e-11
9.59601e-11
9.59603e-11
9.59605e-11
9.59607e-11
9.5961e-11
9.59613e-11
9.59616e-11
9.59617e-11
9.5962e-11
9.59622e-11
9.59624e-11
9.59628e-11
9.59629e-11
9.59633e-11
9.59636e-11
9.59639e-11
9.59641e-11
9.59643e-11
9.59645e-11
9.59648e-11
9.5965e-11
9.59653e-11
9.59655e-11
9.59658e-11
9.59659e-11
9.59661e-11
9.59665e-11
9.59668e-11
9.5967e-11
9.59673e-11
9.59675e-11
9.59678e-11
9.59681e-11
9.59682e-11
9.59685e-11
9.59687e-11
9.59689e-11
9.59692e-11
9.59694e-11
9.59696e-11
9.59699e-11
9.59701e-11
9.59703e-11
9.59706e-11
9.59709e-11
9.59711e-11
9.59713e-11
9.59715e-11
9.59718e-11
9.59721e-11
9.59723e-11
9.59726e-11
9.59728e-11
9.5973e-11
9.59733e-11
9.59735e-11
9.59738e-11
9.5974e-11
9.59743e-11
9.59745e-11
9.59747e-11
9.5975e-11
9.59753e-11
9.59755e-11
9.59757e-11
9.5976e-11
9.59762e-11
9.59765e-11
9.59768e-11
9.5977e-11
9.59773e-11
9.59775e-11
9.59777e-11
9.59779e-11
9.59782e-11
9.59785e-11
9.59788e-11
9.5979e-11
9.59793e-11
9.59795e-11
9.59798e-11
9.598e-11
9.59802e-11
9.59806e-11
9.59808e-11
9.5981e-11
9.59812e-11
9.59816e-11
9.59817e-11
9.5982e-11
9.59822e-11
9.59825e-11
9.59827e-11
9.5983e-11
9.59832e-11
9.59834e-11
9.59837e-11
9.59839e-11
9.59842e-11
9.59845e-11
9.59847e-11
9.59849e-11
9.59851e-11
9.59855e-11
9.59856e-11
9.5986e-11
9.59862e-11
9.59865e-11
9.59867e-11
9.5987e-11
9.59871e-11
9.59875e-11
9.59877e-11
9.5988e-11
9.59882e-11
9.59884e-11
9.59887e-11
9.59889e-11
9.59892e-11
9.59894e-11
9.59896e-11
9.59899e-11
9.59901e-11
9.59904e-11
9.59906e-11
9.59909e-11
9.59911e-11
9.59913e-11
9.59915e-11
9.59918e-11
9.59922e-11
9.59924e-11
9.59927e-11
9.59931e-11
9.59933e-11
9.59937e-11
9.59939e-11
9.59942e-11
9.59945e-11
9.59947e-11
9.5995e-11
9.59953e-11
9.59955e-11
9.59958e-11
9.5996e-11
9.59962e-11
9.59965e-11
9.59968e-11
9.5997e-11
9.59972e-11
9.59975e-11
9.59978e-11
9.5998e-11
9.59983e-11
9.59985e-11
9.59988e-11
9.5999e-11
9.59992e-11
9.59995e-11
9.59997e-11
9.6e-11
9.60002e-11
9.60005e-11
9.60007e-11
9.60011e-11
9.60013e-11
9.60015e-11
9.60017e-11
9.6002e-11
9.60022e-11
9.60025e-11
9.60028e-11
9.60029e-11
9.60034e-11
9.60036e-11
9.60039e-11
9.60041e-11
9.60045e-11
9.60048e-11
9.6005e-11
9.60052e-11
9.60055e-11
9.60058e-11
9.6006e-11
9.60062e-11
9.60066e-11
9.60069e-11
9.6007e-11
9.60073e-11
9.60076e-11
9.60078e-11
9.60081e-11
9.60082e-11
9.60085e-11
9.60089e-11
9.60091e-11
9.60092e-11
9.60096e-11
9.60099e-11
9.60102e-11
9.60104e-11
9.60107e-11
9.60109e-11
9.60112e-11
9.60116e-11
9.60118e-11
9.6012e-11
9.60123e-11
9.60126e-11
9.60129e-11
9.60131e-11
9.60134e-11
9.60136e-11
9.60138e-11
9.60141e-11
9.60143e-11
9.60146e-11
9.60148e-11
9.60152e-11
9.60154e-11
9.60157e-11
9.60159e-11
9.60163e-11
9.60166e-11
9.60168e-11
9.6017e-11
9.60172e-11
9.60175e-11
9.60179e-11
9.60181e-11
9.60184e-11
9.60187e-11
9.60189e-11
9.60192e-11
9.60194e-11
9.60197e-11
9.60199e-11
9.60202e-11
9.60204e-11
9.60208e-11
9.60209e-11
9.60212e-11
9.60214e-11
9.60219e-11
9.60221e-11
9.60223e-11
9.60226e-11
9.60228e-11
9.60231e-11
9.60234e-11
9.60237e-11
9.60239e-11
9.60241e-11
9.60244e-11
9.60247e-11
9.6025e-11
9.60252e-11
9.60254e-11
9.60256e-11
9.6026e-11
9.60262e-11
9.60265e-11
9.60269e-11
9.6027e-11
9.60274e-11
9.60277e-11
9.60279e-11
9.60282e-11
9.60285e-11
9.60287e-11
9.6029e-11
9.60292e-11
9.60295e-11
9.60298e-11
9.603e-11
9.60302e-11
9.60306e-11
9.60309e-11
9.60312e-11
9.60314e-11
9.60317e-11
9.6032e-11
9.60322e-11
9.60325e-11
9.60329e-11
9.60331e-11
9.60333e-11
9.60335e-11
9.60339e-11
9.60341e-11
9.60343e-11
9.60347e-11
9.60348e-11
9.60351e-11
9.60353e-11
9.60357e-11
9.6036e-11
9.60362e-11
9.60365e-11
9.60368e-11
9.6037e-11
9.60372e-11
9.60375e-11
9.60378e-11
9.6038e-11
9.60383e-11
9.60386e-11
9.60389e-11
9.60391e-11
9.60395e-11
9.60397e-11
9.604e-11
9.60402e-11
9.60405e-11
9.60407e-11
9.60409e-11
9.60412e-11
9.60415e-11
9.60418e-11
9.6042e-11
9.60423e-11
9.60426e-11
9.6043e-11
9.60432e-11
9.60434e-11
9.60437e-11
9.6044e-11
9.60442e-11
9.60445e-11
9.60448e-11
9.60451e-11
9.60453e-11
9.60456e-11
9.60458e-11
9.60461e-11
9.60465e-11
9.60468e-11
9.6047e-11
9.60473e-11
9.60475e-11
9.60477e-11
9.60481e-11
9.60483e-11
9.60486e-11
9.60489e-11
9.60492e-11
9.60495e-11
9.60497e-11
9.60499e-11
9.60503e-11
9.60506e-11
9.60508e-11
9.60511e-11
9.60513e-11
9.60515e-11
9.60519e-11
9.60521e-11
9.60524e-11
9.60526e-11
9.60528e-11
9.60532e-11
9.60535e-11
9.60538e-11
9.60539e-11
9.60544e-11
9.60547e-11
9.60549e-11
9.60552e-11
9.60555e-11
9.60557e-11
9.6056e-11
9.60563e-11
9.60565e-11
9.60567e-11
9.60571e-11
9.60572e-11
9.60575e-11
9.60578e-11
9.60582e-11
9.60584e-11
9.60586e-11
9.6059e-11
9.60592e-11
9.60594e-11
9.60596e-11
9.606e-11
9.60602e-11
9.60606e-11
9.60608e-11
9.60611e-11
9.60613e-11
9.60616e-11
9.60618e-11
9.60621e-11
9.60624e-11
9.60627e-11
9.6063e-11
9.60632e-11
9.60635e-11
9.60637e-11
9.60639e-11
9.60643e-11
9.60646e-11
9.6065e-11
9.60654e-11
9.60657e-11
9.60659e-11
9.60662e-11
9.60665e-11
9.60668e-11
9.60671e-11
9.60673e-11
9.60676e-11
9.60679e-11
9.60681e-11
9.60684e-11
9.60687e-11
9.6069e-11
9.60692e-11
9.60695e-11
9.60698e-11
9.607e-11
9.60702e-11
9.60705e-11
9.60709e-11
9.60711e-11
9.60713e-11
9.60716e-11
9.60719e-11
9.60721e-11
9.60724e-11
9.60727e-11
9.60729e-11
9.60733e-11
9.60735e-11
9.60738e-11
9.6074e-11
9.60742e-11
9.60744e-11
9.60747e-11
9.60749e-11
9.60753e-11
9.60755e-11
9.60759e-11
9.60762e-11
9.60765e-11
9.60768e-11
9.6077e-11
9.60773e-11
9.60776e-11
9.60779e-11
9.60782e-11
9.60784e-11
9.60788e-11
9.6079e-11
9.60792e-11
9.60795e-11
9.60798e-11
9.60802e-11
9.60805e-11
9.60807e-11
9.60811e-11
9.60813e-11
9.60815e-11
9.60818e-11
9.60821e-11
9.60824e-11
9.60827e-11
9.60831e-11
9.60834e-11
)
;

boundaryField
{
    fixedWall
    {
        type            zeroGradient;
    }
    outlet
    {
        type            inletOutlet;
        inletValue      uniform 0;
        value           uniform 9.60834e-11;
    }
    defaultFaces
    {
        type            empty;
    }
}


// ************************************************************************* //
