/*--------------------------------*- C++ -*----------------------------------*\
| =========                 |                                                 |
| \\      /  F ield         | OpenFOAM: The Open Source CFD Toolbox           |
|  \\    /   O peration     | Version:  2406                                  |
|   \\  /    A nd           | Website:  www.openfoam.com                      |
|    \\/     M anipulation  |                                                 |
\*---------------------------------------------------------------------------*/
FoamFile
{
    version     2.0;
    format      ascii;
    arch        "LSB;label=32;scalar=64";
    class       volScalarField;
    location    "2.9";
    object      O2;
}
// * * * * * * * * * * * * * * * * * * * * * * * * * * * * * * * * * * * * * //

dimensions      [0 0 0 0 0 0 0];

internalField   nonuniform List<scalar> 
1000
(
1.6604e-06
1.65683e-06
1.6507e-06
1.64254e-06
1.63268e-06
1.62133e-06
1.60864e-06
1.59474e-06
1.57971e-06
1.56362e-06
1.54653e-06
1.52852e-06
1.50963e-06
1.48993e-06
1.46947e-06
1.44831e-06
1.42651e-06
1.40416e-06
1.38133e-06
1.35808e-06
1.33452e-06
1.31073e-06
1.2868e-06
1.26282e-06
1.23888e-06
1.21508e-06
1.1915e-06
1.16824e-06
1.14536e-06
1.12294e-06
1.10105e-06
1.07976e-06
1.05912e-06
1.03917e-06
1.01995e-06
1.0015e-06
9.83836e-07
9.66982e-07
9.50949e-07
9.35742e-07
9.21361e-07
9.07801e-07
8.95053e-07
8.83105e-07
8.71941e-07
8.6154e-07
8.51883e-07
8.42944e-07
8.347e-07
8.27124e-07
8.20188e-07
8.13866e-07
8.08129e-07
8.02949e-07
7.98299e-07
7.94151e-07
7.90477e-07
7.87251e-07
7.84448e-07
7.82042e-07
7.80009e-07
7.78325e-07
7.76969e-07
7.75919e-07
7.75155e-07
7.74656e-07
7.74407e-07
7.74386e-07
7.74577e-07
7.74966e-07
7.75539e-07
7.7628e-07
7.77178e-07
7.7822e-07
7.79395e-07
7.80693e-07
7.82103e-07
7.83617e-07
7.85226e-07
7.86922e-07
7.88698e-07
7.90547e-07
7.92464e-07
7.94442e-07
7.96477e-07
7.98564e-07
8.00699e-07
8.02877e-07
8.05095e-07
8.0735e-07
8.09639e-07
8.11959e-07
8.14309e-07
8.16685e-07
8.19086e-07
8.2151e-07
8.23956e-07
8.26423e-07
8.28909e-07
8.31413e-07
8.33934e-07
8.3647e-07
8.39005e-07
8.41558e-07
8.44149e-07
8.46753e-07
8.49369e-07
8.51998e-07
8.54639e-07
8.57293e-07
8.5996e-07
8.6264e-07
8.65332e-07
8.68037e-07
8.70755e-07
8.73487e-07
8.76231e-07
8.78988e-07
8.81759e-07
8.84544e-07
8.87342e-07
8.90155e-07
8.92981e-07
8.95822e-07
8.98677e-07
9.01547e-07
9.04432e-07
9.07333e-07
9.10249e-07
9.13181e-07
9.16129e-07
9.19094e-07
9.22075e-07
9.25073e-07
9.28088e-07
9.31121e-07
9.34172e-07
9.3724e-07
9.40328e-07
9.43433e-07
9.46558e-07
9.49702e-07
9.52866e-07
9.56049e-07
9.59252e-07
9.62476e-07
9.6572e-07
9.68986e-07
9.72272e-07
9.7558e-07
9.78906e-07
9.82235e-07
9.85603e-07
9.89013e-07
9.92442e-07
9.95893e-07
9.99366e-07
1.00286e-06
1.00637e-06
1.00987e-06
1.01343e-06
1.01702e-06
1.02063e-06
1.02426e-06
1.02792e-06
1.03161e-06
1.03533e-06
1.03907e-06
1.04283e-06
1.04663e-06
1.05045e-06
1.0543e-06
1.05817e-06
1.06208e-06
1.06601e-06
1.06998e-06
1.07397e-06
1.07799e-06
1.08204e-06
1.08613e-06
1.09024e-06
1.09438e-06
1.09856e-06
1.10277e-06
1.10701e-06
1.11128e-06
1.11558e-06
1.11992e-06
1.12429e-06
1.1287e-06
1.13314e-06
1.13762e-06
1.14213e-06
1.14668e-06
1.15126e-06
1.15588e-06
1.16054e-06
1.16524e-06
1.16997e-06
1.17474e-06
1.17955e-06
1.1844e-06
1.18929e-06
1.19422e-06
1.19919e-06
1.2042e-06
1.20926e-06
1.21435e-06
1.21949e-06
1.22467e-06
1.22989e-06
1.23516e-06
1.24047e-06
1.24583e-06
1.25124e-06
1.25669e-06
1.26218e-06
1.26773e-06
1.27332e-06
1.27896e-06
1.28464e-06
1.29038e-06
1.29617e-06
1.30201e-06
1.3079e-06
1.31384e-06
1.31983e-06
1.32588e-06
1.33198e-06
1.33813e-06
1.34434e-06
1.35061e-06
1.35693e-06
1.36331e-06
1.36975e-06
1.37625e-06
1.3828e-06
1.38942e-06
1.3961e-06
1.40284e-06
1.40965e-06
1.41652e-06
1.42345e-06
1.43046e-06
1.43753e-06
1.44467e-06
1.45188e-06
1.45916e-06
1.46651e-06
1.47394e-06
1.48144e-06
1.48902e-06
1.49667e-06
1.5044e-06
1.51222e-06
1.52011e-06
1.52809e-06
1.53615e-06
1.54429e-06
1.55252e-06
1.56084e-06
1.56925e-06
1.57775e-06
1.58634e-06
1.59502e-06
1.60379e-06
1.61267e-06
1.62163e-06
1.6307e-06
1.63987e-06
1.64914e-06
1.65851e-06
1.66798e-06
1.67756e-06
1.68725e-06
1.69705e-06
1.70696e-06
1.71698e-06
1.72711e-06
1.73736e-06
1.74773e-06
1.75822e-06
1.76884e-06
1.77957e-06
1.79044e-06
1.80143e-06
1.81256e-06
1.82382e-06
1.83522e-06
1.84675e-06
1.85834e-06
1.87007e-06
1.88206e-06
1.8942e-06
1.90648e-06
1.91893e-06
1.93153e-06
1.94429e-06
1.95723e-06
1.97033e-06
1.9836e-06
1.99706e-06
2.01069e-06
2.02451e-06
2.03853e-06
2.05273e-06
2.06714e-06
2.08175e-06
2.09656e-06
2.11159e-06
2.12684e-06
2.14231e-06
2.15801e-06
2.17394e-06
2.19012e-06
2.20653e-06
2.2232e-06
2.24013e-06
2.25731e-06
2.27477e-06
2.2925e-06
2.31052e-06
2.32882e-06
2.34742e-06
2.36632e-06
2.38553e-06
2.40506e-06
2.42492e-06
2.44511e-06
2.46564e-06
2.48653e-06
2.50777e-06
2.52938e-06
2.55137e-06
2.57375e-06
2.59652e-06
2.61971e-06
2.6433e-06
2.66733e-06
2.6918e-06
2.71672e-06
2.7421e-06
2.7678e-06
2.79396e-06
2.82086e-06
2.84828e-06
2.87623e-06
2.90473e-06
2.93379e-06
2.96344e-06
2.9937e-06
3.02456e-06
3.05584e-06
3.08773e-06
3.12042e-06
3.1538e-06
3.18788e-06
3.22268e-06
3.25822e-06
3.29452e-06
3.3316e-06
3.3695e-06
3.40824e-06
3.44784e-06
3.48834e-06
3.52976e-06
3.57214e-06
3.61552e-06
3.65994e-06
3.70542e-06
3.75203e-06
3.79979e-06
3.84876e-06
3.89899e-06
3.95053e-06
4.00344e-06
4.05777e-06
4.11359e-06
4.17095e-06
4.22994e-06
4.29061e-06
4.35304e-06
4.4173e-06
4.48348e-06
4.55161e-06
4.62148e-06
4.69363e-06
4.76868e-06
4.84613e-06
4.92607e-06
5.00813e-06
5.09271e-06
5.18047e-06
5.27129e-06
5.3653e-06
5.46263e-06
5.56348e-06
5.66804e-06
5.77652e-06
5.88914e-06
6.00617e-06
6.12787e-06
6.25455e-06
6.38654e-06
6.5242e-06
6.6679e-06
6.81803e-06
6.97485e-06
7.13766e-06
7.30965e-06
7.49034e-06
7.68027e-06
7.88007e-06
8.09042e-06
8.31209e-06
8.5459e-06
8.79277e-06
9.05369e-06
9.32978e-06
9.62224e-06
9.93247e-06
1.0262e-05
1.06125e-05
1.09849e-05
1.13804e-05
1.18077e-05
1.22673e-05
1.2763e-05
1.32997e-05
1.38829e-05
1.45188e-05
1.52147e-05
1.59781e-05
1.68149e-05
1.77501e-05
1.87921e-05
1.99585e-05
2.12723e-05
2.2763e-05
2.44696e-05
2.64436e-05
2.87541e-05
3.14949e-05
3.47938e-05
3.88248e-05
4.38287e-05
5.01468e-05
5.82886e-05
6.90647e-05
8.38731e-05
0.000105368
0.000139079
0.000197254
0.000308399
0.00054859
0.00117255
0.00310963
0.010048
0.0500648
0.0758275
0.0892184
0.0961003
0.0995995
0.101365
0.102252
0.102696
0.102918
0.103029
0.103084
0.103112
0.103125
0.103132
0.103136
0.103137
0.103138
0.103139
0.103139
0.103139
0.103139
0.103139
0.103139
0.103139
0.103139
0.103139
0.103139
0.103139
0.103139
0.103139
0.103139
0.103139
0.103139
0.103139
0.103139
0.103139
0.103139
0.103139
0.103139
0.103139
0.103139
0.103139
0.103139
0.103139
0.103139
0.103139
0.103139
0.103139
0.103139
0.103139
0.103139
0.103139
0.103139
0.103139
0.103139
0.103139
0.103139
0.103139
0.103139
0.103139
0.103139
0.103139
0.103139
0.103139
0.103139
0.103139
0.103139
0.103139
0.103139
0.103139
0.103139
0.103139
0.103139
0.103139
0.103139
0.103139
0.103139
0.103139
0.103139
0.103139
0.103139
0.103139
0.103139
0.103139
0.103139
0.103139
0.103139
0.103139
0.103139
0.103139
0.103139
0.103139
0.103139
0.103139
0.103139
0.103139
0.103139
0.103139
0.103139
0.103139
0.103139
0.103139
0.103139
0.103139
0.103139
0.103139
0.103139
0.103139
0.103139
0.103139
0.103139
0.103139
0.103139
0.103139
0.103139
0.103139
0.103139
0.103139
0.103139
0.103139
0.103139
0.103139
0.103139
0.103139
0.103139
0.103139
0.103139
0.103139
0.103139
0.103139
0.103139
0.103139
0.103139
0.103139
0.103139
0.103139
0.103139
0.103139
0.103139
0.103139
0.103139
0.103139
0.103139
0.103139
0.103139
0.103139
0.103139
0.103139
0.103139
0.103139
0.103139
0.103139
0.103139
0.103139
0.103139
0.103139
0.103139
0.103139
0.103139
0.103139
0.103139
0.103139
0.103139
0.103139
0.103139
0.103139
0.103139
0.103139
0.103139
0.103139
0.103139
0.103139
0.103139
0.103139
0.103139
0.103139
0.103139
0.103139
0.103139
0.103139
0.103139
0.103139
0.103139
0.103139
0.103139
0.103139
0.103139
0.103139
0.103139
0.103139
0.103139
0.103139
0.103139
0.103139
0.103139
0.103139
0.103139
0.103139
0.103139
0.103139
0.103139
0.103139
0.103139
0.103139
0.103139
0.103139
0.103139
0.103139
0.103139
0.103139
0.103139
0.103139
0.103139
0.103139
0.103139
0.103139
0.103139
0.103139
0.103139
0.103139
0.103139
0.103139
0.103139
0.103139
0.103139
0.103139
0.103139
0.103139
0.103139
0.103139
0.103139
0.103139
0.103139
0.103139
0.103139
0.103139
0.103139
0.103139
0.103139
0.103139
0.103139
0.103139
0.103139
0.103139
0.103139
0.103139
0.103139
0.103139
0.103139
0.103139
0.103139
0.103139
0.103139
0.103139
0.103139
0.103139
0.103139
0.103139
0.103139
0.103139
0.103139
0.103139
0.103139
0.103139
0.103139
0.103139
0.103139
0.103139
0.103139
0.103139
0.103139
0.103139
0.103139
0.103139
0.103139
0.103139
0.103139
0.103139
0.103139
0.103139
0.103139
0.103139
0.103139
0.103139
0.103139
0.103139
0.103139
0.103139
0.103139
0.103139
0.103139
0.103139
0.103139
0.103139
0.103139
0.103139
0.103139
0.103139
0.103139
0.103139
0.103139
0.103139
0.103139
0.103139
0.103139
0.103139
0.103139
0.103139
0.103139
0.103139
0.103139
0.103139
0.103139
0.103139
0.103139
0.103139
0.103139
0.103139
0.103139
0.103139
0.103139
0.103139
0.103139
0.103139
0.103139
0.103139
0.103139
0.103139
0.103139
0.103139
0.103139
0.103139
0.103139
0.103139
0.103139
0.103139
0.103139
0.103139
0.103139
0.103139
0.103139
0.103139
0.103139
0.103139
0.103139
0.103139
0.103139
0.103139
0.103139
0.103139
0.103139
0.103139
0.103139
0.103139
0.103139
0.103139
0.103139
0.103139
0.103139
0.103139
0.103139
0.103139
0.103139
0.103139
0.103139
0.103139
0.103139
0.103139
0.103139
0.103139
0.103139
0.103139
0.103139
0.103139
0.103139
0.103139
0.103139
0.103139
0.103139
0.103139
0.103139
0.103139
0.103139
0.103139
0.103139
0.103139
0.103139
0.103139
0.103139
0.103139
0.103139
0.103139
0.103139
0.103139
0.103139
0.103139
0.103139
0.103139
0.103139
0.103139
0.103139
0.103139
0.103139
0.103139
0.103139
0.103139
0.103139
0.103139
0.103139
0.103139
0.103139
0.103139
0.103139
0.103139
0.103139
0.103139
0.103139
0.103139
0.103139
0.103139
0.103139
0.103139
0.103139
0.103139
0.103139
0.103139
0.103139
0.103139
0.103139
0.103139
0.103139
0.103139
0.103139
0.103139
0.103139
0.103139
0.103139
0.103139
0.103139
0.103139
0.103139
0.103139
0.103139
0.103139
0.103139
0.103139
0.103139
0.103139
0.103139
0.103139
0.103139
0.103139
0.103139
0.103139
0.103139
0.103139
0.103139
0.103139
0.103139
0.103139
0.103139
0.103139
0.103139
0.103139
0.103139
0.103139
0.103139
0.103139
0.103139
0.103139
0.103139
0.103139
0.103139
0.103139
0.103139
0.103139
0.103139
0.103139
0.103139
0.103139
0.103139
0.103139
0.103139
0.103139
0.103139
0.103139
0.103139
0.103139
0.103139
0.103139
0.103139
0.103139
0.103139
0.103139
0.103139
0.103139
0.103139
0.103139
0.103139
0.103139
0.103139
0.103139
0.103139
0.103139
0.103139
0.103139
0.103139
0.103139
0.103139
0.103139
0.103139
0.103139
0.103139
0.103139
0.103139
0.103139
0.103139
0.103139
0.103139
0.103139
0.103139
0.103139
0.103139
0.103139
0.103139
0.103139
0.103139
0.103139
0.103139
0.103139
0.103139
0.103139
0.103139
0.103139
0.103139
0.103139
0.103139
0.103139
0.103139
0.103139
0.103139
0.103139
)
;

boundaryField
{
    fixedWall
    {
        type            zeroGradient;
    }
    outlet
    {
        type            inletOutlet;
        inletValue      uniform 0;
        value           uniform 0.103139;
    }
    defaultFaces
    {
        type            empty;
    }
}


// ************************************************************************* //
