/*--------------------------------*- C++ -*----------------------------------*\
| =========                 |                                                 |
| \\      /  F ield         | OpenFOAM: The Open Source CFD Toolbox           |
|  \\    /   O peration     | Version:  2406                                  |
|   \\  /    A nd           | Website:  www.openfoam.com                      |
|    \\/     M anipulation  |                                                 |
\*---------------------------------------------------------------------------*/
FoamFile
{
    version     2.0;
    format      ascii;
    arch        "LSB;label=32;scalar=64";
    class       volScalarField;
    location    "2.9";
    object      T;
}
// * * * * * * * * * * * * * * * * * * * * * * * * * * * * * * * * * * * * * //

dimensions      [0 0 0 1 0 0 0];

internalField   nonuniform List<scalar> 
1000
(
318.285
361.654
399.59
433.425
464.01
491.93
517.61
541.367
563.447
584.045
603.319
621.399
638.394
654.396
669.483
683.724
697.179
709.9
721.935
733.324
744.107
754.318
763.989
773.147
781.821
790.035
797.812
805.173
812.14
818.731
824.964
830.856
836.424
841.683
846.647
851.331
855.747
859.91
863.83
867.52
870.991
874.253
877.317
880.193
882.89
885.417
887.784
889.997
892.067
894
895.803
897.484
899.05
900.507
901.861
903.119
904.286
905.367
906.367
907.292
908.147
908.935
909.661
910.329
910.943
911.507
912.021
912.492
912.925
913.321
913.681
914.009
914.307
914.577
914.822
915.044
915.243
915.423
915.584
915.729
915.859
915.974
916.077
916.169
916.249
916.321
916.383
916.438
916.486
916.527
916.563
916.593
916.619
916.641
916.659
916.675
916.687
916.697
916.704
916.71
916.714
916.716
916.718
916.718
916.717
916.716
916.714
916.711
916.708
916.705
916.702
916.698
916.694
916.69
916.687
916.683
916.679
916.675
916.672
916.668
916.665
916.661
916.658
916.655
916.653
916.65
916.648
916.645
916.643
916.641
916.639
916.638
916.636
916.635
916.634
916.633
916.632
916.631
916.63
916.629
916.629
916.628
916.628
916.627
916.627
916.627
916.627
916.627
916.626
916.626
916.626
916.626
916.626
916.626
916.626
916.626
916.626
916.626
916.626
916.626
916.626
916.626
916.626
916.626
916.626
916.626
916.626
916.626
916.626
916.625
916.625
916.625
916.624
916.624
916.624
916.623
916.623
916.622
916.622
916.621
916.621
916.62
916.619
916.619
916.618
916.617
916.616
916.615
916.614
916.613
916.612
916.611
916.61
916.609
916.608
916.607
916.605
916.604
916.603
916.601
916.6
916.599
916.597
916.596
916.594
916.593
916.591
916.589
916.588
916.586
916.584
916.583
916.581
916.579
916.578
916.576
916.574
916.572
916.571
916.569
916.567
916.565
916.564
916.562
916.56
916.558
916.557
916.555
916.553
916.551
916.55
916.548
916.546
916.545
916.543
916.542
916.54
916.538
916.537
916.535
916.534
916.532
916.531
916.529
916.528
916.526
916.525
916.523
916.522
916.52
916.519
916.517
916.516
916.514
916.513
916.511
916.51
916.508
916.507
916.505
916.504
916.502
916.501
916.499
916.498
916.497
916.495
916.494
916.493
916.491
916.49
916.489
916.488
916.487
916.486
916.485
916.484
916.483
916.482
916.482
916.481
916.48
916.48
916.479
916.479
916.479
916.478
916.478
916.478
916.478
916.478
916.478
916.478
916.478
916.478
916.478
916.478
916.479
916.479
916.479
916.479
916.48
916.48
916.48
916.481
916.481
916.481
916.481
916.482
916.482
916.482
916.483
916.483
916.483
916.483
916.484
916.484
916.484
916.484
916.485
916.485
916.485
916.486
916.486
916.486
916.486
916.487
916.487
916.487
916.488
916.488
916.488
916.489
916.489
916.489
916.49
916.49
916.49
916.49
916.49
916.491
916.491
916.491
916.491
916.491
916.491
916.491
916.49
916.49
916.49
916.49
916.49
916.49
916.49
916.49
916.49
916.491
916.491
916.491
916.492
916.493
916.493
916.494
916.495
916.497
916.498
916.5
916.501
916.503
916.505
916.507
916.509
916.511
916.513
916.514
916.516
916.518
916.52
916.521
916.522
916.523
916.524
916.525
916.525
916.526
916.526
916.526
916.526
916.526
916.526
916.526
916.526
916.526
916.526
916.527
916.528
916.529
916.53
916.532
916.533
916.535
916.537
916.54
916.542
916.544
916.545
916.547
916.548
916.548
916.548
916.547
916.545
916.543
916.54
916.536
916.532
916.527
916.522
916.516
916.511
916.507
916.503
916.5
916.498
916.498
916.499
916.501
916.504
916.508
916.513
916.517
916.521
916.524
916.526
916.525
916.523
916.52
916.514
916.506
916.496
916.484
916.467
916.444
916.413
916.371
916.316
916.244
916.157
916.057
915.95
915.838
915.711
915.522
915.133
914.174
911.502
903.286
874.138
691.975
539.733
438.23
375.19
338.346
317.65
306.284
300.12
296.8
295.019
294.066
293.557
293.285
293.14
293.063
293.022
293
292.989
292.982
292.979
292.977
292.976
292.976
292.976
292.976
292.976
292.976
292.976
292.976
292.976
292.976
292.976
292.976
292.976
292.976
292.976
292.976
292.976
292.976
292.976
292.976
292.976
292.976
292.976
292.976
292.976
292.976
292.976
292.976
292.976
292.976
292.976
292.977
292.977
292.977
292.977
292.977
292.977
292.977
292.977
292.977
292.977
292.977
292.977
292.977
292.977
292.977
292.977
292.977
292.977
292.977
292.977
292.977
292.977
292.977
292.977
292.977
292.977
292.977
292.977
292.978
292.978
292.978
292.978
292.978
292.978
292.978
292.978
292.978
292.978
292.978
292.978
292.978
292.978
292.978
292.978
292.978
292.978
292.978
292.978
292.978
292.978
292.978
292.978
292.978
292.978
292.978
292.979
292.979
292.979
292.979
292.979
292.979
292.979
292.979
292.979
292.979
292.979
292.979
292.979
292.979
292.979
292.979
292.979
292.979
292.979
292.979
292.979
292.979
292.979
292.979
292.979
292.979
292.979
292.979
292.98
292.98
292.98
292.98
292.98
292.98
292.98
292.98
292.98
292.98
292.98
292.98
292.98
292.98
292.98
292.98
292.98
292.98
292.98
292.98
292.98
292.98
292.98
292.98
292.98
292.98
292.98
292.98
292.981
292.981
292.981
292.981
292.981
292.981
292.981
292.981
292.981
292.981
292.981
292.981
292.981
292.981
292.981
292.981
292.981
292.981
292.981
292.981
292.981
292.981
292.981
292.981
292.981
292.981
292.981
292.981
292.982
292.982
292.982
292.982
292.982
292.982
292.982
292.982
292.982
292.982
292.982
292.982
292.982
292.982
292.982
292.982
292.982
292.982
292.982
292.982
292.982
292.982
292.982
292.982
292.982
292.982
292.982
292.983
292.983
292.983
292.983
292.983
292.983
292.983
292.983
292.983
292.983
292.983
292.983
292.983
292.983
292.983
292.983
292.983
292.983
292.983
292.983
292.983
292.983
292.983
292.983
292.983
292.983
292.983
292.983
292.984
292.984
292.984
292.984
292.984
292.984
292.984
292.984
292.984
292.984
292.984
292.984
292.984
292.984
292.984
292.984
292.984
292.984
292.984
292.984
292.984
292.984
292.984
292.984
292.984
292.984
292.984
292.985
292.985
292.985
292.985
292.985
292.985
292.985
292.985
292.985
292.985
292.985
292.985
292.985
292.985
292.985
292.985
292.985
292.985
292.985
292.985
292.985
292.985
292.985
292.985
292.985
292.985
292.985
292.986
292.986
292.986
292.986
292.986
292.986
292.986
292.986
292.986
292.986
292.986
292.986
292.986
292.986
292.986
292.986
292.986
292.986
292.986
292.986
292.986
292.986
292.986
292.986
292.986
292.986
292.986
292.986
292.987
292.987
292.987
292.987
292.987
292.987
292.987
292.987
292.987
292.987
292.987
292.987
292.987
292.987
292.987
292.987
292.987
292.987
292.987
292.987
292.987
292.987
292.987
292.987
292.987
292.987
292.987
292.988
292.988
292.988
292.988
292.988
292.988
292.988
292.988
292.988
292.988
292.988
292.988
292.988
292.988
292.988
292.988
292.988
292.988
292.988
292.988
292.988
292.988
292.988
292.988
292.988
292.988
292.988
292.989
292.989
292.989
292.989
292.989
292.989
292.989
292.989
292.989
292.989
292.989
292.989
292.989
292.989
292.989
292.989
292.989
292.989
292.989
292.989
292.989
292.989
292.989
292.989
292.989
292.989
292.989
292.99
292.99
292.99
292.99
292.99
292.99
292.99
292.99
292.99
292.99
292.99
292.99
292.99
292.99
292.99
292.99
292.99
292.99
292.99
292.99
292.99
292.99
292.99
292.99
292.99
292.99
292.99
292.991
292.991
292.991
292.991
292.991
292.991
292.991
292.991
292.991
292.991
292.991
292.991
292.991
292.991
292.991
292.991
292.991
292.991
292.991
292.991
292.991
292.991
292.991
292.991
292.991
292.991
292.991
292.991
292.992
292.992
292.992
292.992
292.992
292.992
292.992
292.992
292.992
292.992
292.992
292.992
292.992
292.992
292.992
292.992
292.992
292.992
292.992
292.992
292.992
292.992
292.992
292.992
292.992
292.992
292.992
292.993
292.993
292.993
292.993
292.993
292.993
292.993
292.993
292.993
292.993
292.993
292.993
292.993
292.993
292.993
292.993
292.993
292.993
292.993
292.993
292.993
292.993
292.993
292.993
292.993
292.993
292.993
292.994
292.994
292.994
292.994
292.994
292.994
292.994
292.994
292.994
292.994
292.994
292.994
292.994
292.994
292.994
292.994
292.994
292.994
292.994
292.994
292.994
292.994
292.994
292.994
)
;

boundaryField
{
    fixedWall
    {
        type            fixedValue;
        value           uniform 293;
    }
    outlet
    {
        type            inletOutlet;
        inletValue      uniform 293;
        value           uniform 292.994;
    }
    defaultFaces
    {
        type            empty;
    }
}


// ************************************************************************* //
