/*--------------------------------*- C++ -*----------------------------------*\
| =========                 |                                                 |
| \\      /  F ield         | OpenFOAM: The Open Source CFD Toolbox           |
|  \\    /   O peration     | Version:  2406                                  |
|   \\  /    A nd           | Website:  www.openfoam.com                      |
|    \\/     M anipulation  |                                                 |
\*---------------------------------------------------------------------------*/
FoamFile
{
    version     2.0;
    format      ascii;
    arch        "LSB;label=32;scalar=64";
    class       volVectorField;
    location    "2.9";
    object      U;
}
// * * * * * * * * * * * * * * * * * * * * * * * * * * * * * * * * * * * * * //

dimensions      [0 1 -1 0 0 0 0];

internalField   nonuniform List<vector> 
1000
(
(-7.28471e-06 0 0)
(-3.32202e-05 0 0)
(-8.04858e-05 0 0)
(-0.00014083 0 0)
(-0.000210016 0 0)
(-0.000285653 0 0)
(-0.000366137 0 0)
(-0.000450239 0 0)
(-0.000536991 0 0)
(-0.000625627 0 0)
(-0.000715529 0 0)
(-0.000806194 0 0)
(-0.0008972 0 0)
(-0.000988192 0 0)
(-0.00107887 0 0)
(-0.00116897 0 0)
(-0.00125827 0 0)
(-0.00134658 0 0)
(-0.00143372 0 0)
(-0.00151954 0 0)
(-0.00160393 0 0)
(-0.00168676 0 0)
(-0.00176794 0 0)
(-0.00184738 0 0)
(-0.00192501 0 0)
(-0.00200077 0 0)
(-0.0020746 0 0)
(-0.00214647 0 0)
(-0.00221633 0 0)
(-0.00228417 0 0)
(-0.00234996 0 0)
(-0.00241368 0 0)
(-0.00247534 0 0)
(-0.00253493 0 0)
(-0.00259245 0 0)
(-0.00264791 0 0)
(-0.00270133 0 0)
(-0.00275272 0 0)
(-0.00280211 0 0)
(-0.00284952 0 0)
(-0.00289498 0 0)
(-0.00293851 0 0)
(-0.00298017 0 0)
(-0.00301997 0 0)
(-0.00305796 0 0)
(-0.00309418 0 0)
(-0.00312868 0 0)
(-0.00316149 0 0)
(-0.00319266 0 0)
(-0.00322224 0 0)
(-0.00325028 0 0)
(-0.00327682 0 0)
(-0.00330191 0 0)
(-0.00332561 0 0)
(-0.00334795 0 0)
(-0.003369 0 0)
(-0.00338879 0 0)
(-0.00340738 0 0)
(-0.00342482 0 0)
(-0.00344116 0 0)
(-0.00345644 0 0)
(-0.00347071 0 0)
(-0.00348401 0 0)
(-0.0034964 0 0)
(-0.00350791 0 0)
(-0.00351854 0 0)
(-0.00352824 0 0)
(-0.00353731 0 0)
(-0.00354586 0 0)
(-0.00355368 0 0)
(-0.00356082 0 0)
(-0.00356744 0 0)
(-0.00357331 0 0)
(-0.00357878 0 0)
(-0.00358373 0 0)
(-0.00358827 0 0)
(-0.0035924 0 0)
(-0.00359597 0 0)
(-0.00359927 0 0)
(-0.00360221 0 0)
(-0.00360481 0 0)
(-0.0036071 0 0)
(-0.00360911 0 0)
(-0.00361086 0 0)
(-0.00361237 0 0)
(-0.00361365 0 0)
(-0.00361472 0 0)
(-0.00361561 0 0)
(-0.00361631 0 0)
(-0.00361687 0 0)
(-0.00361723 0 0)
(-0.00361756 0 0)
(-0.00361768 0 0)
(-0.00361767 0 0)
(-0.00361764 0 0)
(-0.00361745 0 0)
(-0.00361721 0 0)
(-0.00361688 0 0)
(-0.00361648 0 0)
(-0.00361602 0 0)
(-0.00361551 0 0)
(-0.00361494 0 0)
(-0.00361434 0 0)
(-0.00361369 0 0)
(-0.003613 0 0)
(-0.00361228 0 0)
(-0.00361154 0 0)
(-0.00361077 0 0)
(-0.00360998 0 0)
(-0.00360916 0 0)
(-0.00360834 0 0)
(-0.00360749 0 0)
(-0.00360664 0 0)
(-0.00360577 0 0)
(-0.0036049 0 0)
(-0.00360402 0 0)
(-0.00360313 0 0)
(-0.00360224 0 0)
(-0.00360134 0 0)
(-0.00360044 0 0)
(-0.00359954 0 0)
(-0.00359863 0 0)
(-0.00359772 0 0)
(-0.00359682 0 0)
(-0.00359591 0 0)
(-0.003595 0 0)
(-0.0035941 0 0)
(-0.00359319 0 0)
(-0.00359229 0 0)
(-0.00359139 0 0)
(-0.00359049 0 0)
(-0.00358959 0 0)
(-0.0035887 0 0)
(-0.0035878 0 0)
(-0.00358691 0 0)
(-0.00358602 0 0)
(-0.00358513 0 0)
(-0.00358425 0 0)
(-0.00358337 0 0)
(-0.00358249 0 0)
(-0.00358161 0 0)
(-0.00358073 0 0)
(-0.00357986 0 0)
(-0.00357899 0 0)
(-0.00357812 0 0)
(-0.00357725 0 0)
(-0.00357639 0 0)
(-0.00357552 0 0)
(-0.00357466 0 0)
(-0.0035738 0 0)
(-0.00357295 0 0)
(-0.00357209 0 0)
(-0.00357124 0 0)
(-0.00357038 0 0)
(-0.00356953 0 0)
(-0.00356869 0 0)
(-0.00356784 0 0)
(-0.00356699 0 0)
(-0.00356615 0 0)
(-0.0035653 0 0)
(-0.00356446 0 0)
(-0.00356362 0 0)
(-0.00356278 0 0)
(-0.00356194 0 0)
(-0.00356111 0 0)
(-0.00356027 0 0)
(-0.00355943 0 0)
(-0.0035586 0 0)
(-0.00355777 0 0)
(-0.00355693 0 0)
(-0.0035561 0 0)
(-0.00355527 0 0)
(-0.00355444 0 0)
(-0.00355361 0 0)
(-0.00355278 0 0)
(-0.00355195 0 0)
(-0.00355113 0 0)
(-0.0035503 0 0)
(-0.00354948 0 0)
(-0.00354865 0 0)
(-0.00354783 0 0)
(-0.00354701 0 0)
(-0.00354618 0 0)
(-0.00354536 0 0)
(-0.00354454 0 0)
(-0.00354372 0 0)
(-0.0035429 0 0)
(-0.00354208 0 0)
(-0.00354126 0 0)
(-0.00354045 0 0)
(-0.00353963 0 0)
(-0.00353881 0 0)
(-0.003538 0 0)
(-0.00353718 0 0)
(-0.00353637 0 0)
(-0.00353555 0 0)
(-0.00353474 0 0)
(-0.00353393 0 0)
(-0.00353312 0 0)
(-0.0035323 0 0)
(-0.00353149 0 0)
(-0.00353068 0 0)
(-0.00352987 0 0)
(-0.00352906 0 0)
(-0.00352825 0 0)
(-0.00352744 0 0)
(-0.00352663 0 0)
(-0.00352582 0 0)
(-0.00352501 0 0)
(-0.00352421 0 0)
(-0.0035234 0 0)
(-0.00352259 0 0)
(-0.00352178 0 0)
(-0.00352098 0 0)
(-0.00352017 0 0)
(-0.00351936 0 0)
(-0.00351856 0 0)
(-0.00351775 0 0)
(-0.00351695 0 0)
(-0.00351614 0 0)
(-0.00351534 0 0)
(-0.00351453 0 0)
(-0.00351373 0 0)
(-0.00351292 0 0)
(-0.00351212 0 0)
(-0.00351132 0 0)
(-0.00351052 0 0)
(-0.00350972 0 0)
(-0.00350891 0 0)
(-0.00350811 0 0)
(-0.00350731 0 0)
(-0.00350652 0 0)
(-0.00350572 0 0)
(-0.00350492 0 0)
(-0.00350412 0 0)
(-0.00350333 0 0)
(-0.00350253 0 0)
(-0.00350174 0 0)
(-0.00350095 0 0)
(-0.00350016 0 0)
(-0.00349936 0 0)
(-0.00349858 0 0)
(-0.00349779 0 0)
(-0.003497 0 0)
(-0.00349621 0 0)
(-0.00349543 0 0)
(-0.00349464 0 0)
(-0.00349386 0 0)
(-0.00349308 0 0)
(-0.0034923 0 0)
(-0.00349152 0 0)
(-0.00349074 0 0)
(-0.00348996 0 0)
(-0.00348919 0 0)
(-0.00348841 0 0)
(-0.00348764 0 0)
(-0.00348686 0 0)
(-0.00348609 0 0)
(-0.00348531 0 0)
(-0.00348454 0 0)
(-0.00348377 0 0)
(-0.00348299 0 0)
(-0.00348222 0 0)
(-0.00348145 0 0)
(-0.00348068 0 0)
(-0.00347991 0 0)
(-0.00347914 0 0)
(-0.00347836 0 0)
(-0.00347759 0 0)
(-0.00347682 0 0)
(-0.00347605 0 0)
(-0.00347528 0 0)
(-0.00347451 0 0)
(-0.00347374 0 0)
(-0.00347297 0 0)
(-0.0034722 0 0)
(-0.00347143 0 0)
(-0.00347067 0 0)
(-0.0034699 0 0)
(-0.00346913 0 0)
(-0.00346837 0 0)
(-0.0034676 0 0)
(-0.00346684 0 0)
(-0.00346608 0 0)
(-0.00346531 0 0)
(-0.00346455 0 0)
(-0.0034638 0 0)
(-0.00346304 0 0)
(-0.00346228 0 0)
(-0.00346153 0 0)
(-0.00346078 0 0)
(-0.00346003 0 0)
(-0.00345928 0 0)
(-0.00345853 0 0)
(-0.00345779 0 0)
(-0.00345705 0 0)
(-0.0034563 0 0)
(-0.00345557 0 0)
(-0.00345483 0 0)
(-0.00345409 0 0)
(-0.00345336 0 0)
(-0.00345263 0 0)
(-0.0034519 0 0)
(-0.00345117 0 0)
(-0.00345044 0 0)
(-0.00344972 0 0)
(-0.00344899 0 0)
(-0.00344827 0 0)
(-0.00344755 0 0)
(-0.00344683 0 0)
(-0.00344611 0 0)
(-0.00344539 0 0)
(-0.00344467 0 0)
(-0.00344395 0 0)
(-0.00344324 0 0)
(-0.00344252 0 0)
(-0.0034418 0 0)
(-0.00344109 0 0)
(-0.00344038 0 0)
(-0.00343966 0 0)
(-0.00343895 0 0)
(-0.00343824 0 0)
(-0.00343753 0 0)
(-0.00343681 0 0)
(-0.00343611 0 0)
(-0.0034354 0 0)
(-0.00343469 0 0)
(-0.00343398 0 0)
(-0.00343328 0 0)
(-0.00343258 0 0)
(-0.00343187 0 0)
(-0.00343117 0 0)
(-0.00343048 0 0)
(-0.00342978 0 0)
(-0.00342908 0 0)
(-0.00342839 0 0)
(-0.0034277 0 0)
(-0.00342701 0 0)
(-0.00342632 0 0)
(-0.00342564 0 0)
(-0.00342495 0 0)
(-0.00342427 0 0)
(-0.00342358 0 0)
(-0.0034229 0 0)
(-0.00342221 0 0)
(-0.00342153 0 0)
(-0.00342084 0 0)
(-0.00342016 0 0)
(-0.00341947 0 0)
(-0.00341878 0 0)
(-0.00341809 0 0)
(-0.0034174 0 0)
(-0.00341671 0 0)
(-0.00341601 0 0)
(-0.00341531 0 0)
(-0.00341461 0 0)
(-0.0034139 0 0)
(-0.0034132 0 0)
(-0.00341249 0 0)
(-0.00341178 0 0)
(-0.00341107 0 0)
(-0.00341036 0 0)
(-0.00340965 0 0)
(-0.00340894 0 0)
(-0.00340824 0 0)
(-0.00340753 0 0)
(-0.00340683 0 0)
(-0.00340613 0 0)
(-0.00340543 0 0)
(-0.00340474 0 0)
(-0.00340406 0 0)
(-0.00340338 0 0)
(-0.00340271 0 0)
(-0.00340204 0 0)
(-0.00340139 0 0)
(-0.00340074 0 0)
(-0.00340009 0 0)
(-0.00339945 0 0)
(-0.00339882 0 0)
(-0.00339819 0 0)
(-0.00339756 0 0)
(-0.00339693 0 0)
(-0.0033963 0 0)
(-0.00339567 0 0)
(-0.00339503 0 0)
(-0.00339438 0 0)
(-0.00339373 0 0)
(-0.00339307 0 0)
(-0.00339239 0 0)
(-0.00339171 0 0)
(-0.00339101 0 0)
(-0.0033903 0 0)
(-0.00338959 0 0)
(-0.00338885 0 0)
(-0.00338812 0 0)
(-0.00338737 0 0)
(-0.00338663 0 0)
(-0.00338588 0 0)
(-0.00338513 0 0)
(-0.0033844 0 0)
(-0.00338366 0 0)
(-0.00338294 0 0)
(-0.00338224 0 0)
(-0.00338155 0 0)
(-0.00338088 0 0)
(-0.00338023 0 0)
(-0.0033796 0 0)
(-0.00337898 0 0)
(-0.00337839 0 0)
(-0.0033778 0 0)
(-0.00337722 0 0)
(-0.00337664 0 0)
(-0.00337605 0 0)
(-0.00337544 0 0)
(-0.0033748 0 0)
(-0.00337412 0 0)
(-0.0033734 0 0)
(-0.00337262 0 0)
(-0.00337176 0 0)
(-0.00337084 0 0)
(-0.00336983 0 0)
(-0.00336875 0 0)
(-0.0033676 0 0)
(-0.00336638 0 0)
(-0.00336513 0 0)
(-0.00336385 0 0)
(-0.00336256 0 0)
(-0.00336131 0 0)
(-0.00336009 0 0)
(-0.00335893 0 0)
(-0.00335784 0 0)
(-0.00335679 0 0)
(-0.00335578 0 0)
(-0.00335476 0 0)
(-0.00335369 0 0)
(-0.00335253 0 0)
(-0.00335124 0 0)
(-0.00334979 0 0)
(-0.00334818 0 0)
(-0.00334642 0 0)
(-0.00334466 0 0)
(-0.00334275 0 0)
(-0.00334093 0 0)
(-0.00333864 0 0)
(-0.00333755 0 0)
(-0.00333442 0 0)
(-0.00333049 0 0)
(-0.00332468 0 0)
(-0.00331279 0 0)
(-0.00329537 0 0)
(-0.00326127 0 0)
(-0.00322738 0 0)
(-0.00312537 0 0)
(-0.00305592 0 0)
(-0.00261786 0 0)
(-0.00256687 0 0)
(-0.000150347 0 0)
(0.0162021 0 0)
(0.0462474 0 0)
(0.0729948 0 0)
(0.0899266 0 0)
(0.0993301 0 0)
(0.104124 0 0)
(0.106437 0 0)
(0.107516 0 0)
(0.108074 0 0)
(0.108385 0 0)
(0.108526 0 0)
(0.108551 0 0)
(0.108651 0 0)
(0.108636 0 0)
(0.108706 0 0)
(0.108676 0 0)
(0.108615 0 0)
(0.108731 0 0)
(0.108667 0 0)
(0.10865 0 0)
(0.1087 0 0)
(0.108685 0 0)
(0.10869 0 0)
(0.108636 0 0)
(0.108714 0 0)
(0.108722 0 0)
(0.108576 0 0)
(0.108748 0 0)
(0.108717 0 0)
(0.108613 0 0)
(0.108719 0 0)
(0.108633 0 0)
(0.108745 0 0)
(0.108687 0 0)
(0.108614 0 0)
(0.108729 0 0)
(0.108713 0 0)
(0.108602 0 0)
(0.108712 0 0)
(0.108737 0 0)
(0.108602 0 0)
(0.108743 0 0)
(0.108626 0 0)
(0.108734 0 0)
(0.108688 0 0)
(0.10869 0 0)
(0.108609 0 0)
(0.108715 0 0)
(0.10875 0 0)
(0.108575 0 0)
(0.108781 0 0)
(0.108611 0 0)
(0.108749 0 0)
(0.108699 0 0)
(0.108578 0 0)
(0.108756 0 0)
(0.108748 0 0)
(0.108609 0 0)
(0.108652 0 0)
(0.10878 0 0)
(0.108631 0 0)
(0.108695 0 0)
(0.108654 0 0)
(0.108747 0 0)
(0.108698 0 0)
(0.108609 0 0)
(0.108753 0 0)
(0.108648 0 0)
(0.10873 0 0)
(0.108625 0 0)
(0.108758 0 0)
(0.108695 0 0)
(0.108597 0 0)
(0.108778 0 0)
(0.108641 0 0)
(0.108709 0 0)
(0.108709 0 0)
(0.10865 0 0)
(0.108717 0 0)
(0.108664 0 0)
(0.108725 0 0)
(0.108696 0 0)
(0.108628 0 0)
(0.108774 0 0)
(0.108616 0 0)
(0.108714 0 0)
(0.108746 0 0)
(0.1086 0 0)
(0.108769 0 0)
(0.108663 0 0)
(0.10869 0 0)
(0.108703 0 0)
(0.108671 0 0)
(0.108763 0 0)
(0.108608 0 0)
(0.108678 0 0)
(0.108798 0 0)
(0.108614 0 0)
(0.10872 0 0)
(0.108703 0 0)
(0.108637 0 0)
(0.108768 0 0)
(0.108631 0 0)
(0.108765 0 0)
(0.10869 0 0)
(0.108619 0 0)
(0.108763 0 0)
(0.1087 0 0)
(0.108667 0 0)
(0.108717 0 0)
(0.10866 0 0)
(0.10875 0 0)
(0.108715 0 0)
(0.108599 0 0)
(0.108768 0 0)
(0.108723 0 0)
(0.108662 0 0)
(0.10869 0 0)
(0.108706 0 0)
(0.108727 0 0)
(0.108643 0 0)
(0.108763 0 0)
(0.108717 0 0)
(0.108594 0 0)
(0.108779 0 0)
(0.108735 0 0)
(0.108626 0 0)
(0.108745 0 0)
(0.108729 0 0)
(0.108587 0 0)
(0.108823 0 0)
(0.108716 0 0)
(0.108569 0 0)
(0.108826 0 0)
(0.108716 0 0)
(0.108573 0 0)
(0.108831 0 0)
(0.108707 0 0)
(0.1086 0 0)
(0.108781 0 0)
(0.108738 0 0)
(0.108641 0 0)
(0.108723 0 0)
(0.108696 0 0)
(0.108722 0 0)
(0.10874 0 0)
(0.108637 0 0)
(0.108761 0 0)
(0.108699 0 0)
(0.108699 0 0)
(0.108675 0 0)
(0.108787 0 0)
(0.108691 0 0)
(0.108593 0 0)
(0.108851 0 0)
(0.108699 0 0)
(0.108605 0 0)
(0.108782 0 0)
(0.108737 0 0)
(0.10865 0 0)
(0.108753 0 0)
(0.10871 0 0)
(0.108647 0 0)
(0.108793 0 0)
(0.108653 0 0)
(0.108752 0 0)
(0.108739 0 0)
(0.108611 0 0)
(0.108786 0 0)
(0.108736 0 0)
(0.108679 0 0)
(0.108719 0 0)
(0.108696 0 0)
(0.108751 0 0)
(0.10867 0 0)
(0.108766 0 0)
(0.108732 0 0)
(0.108611 0 0)
(0.108794 0 0)
(0.108731 0 0)
(0.108669 0 0)
(0.108747 0 0)
(0.108675 0 0)
(0.108785 0 0)
(0.108701 0 0)
(0.10864 0 0)
(0.108816 0 0)
(0.108639 0 0)
(0.108791 0 0)
(0.108712 0 0)
(0.108641 0 0)
(0.108798 0 0)
(0.10867 0 0)
(0.108778 0 0)
(0.108701 0 0)
(0.108668 0 0)
(0.108776 0 0)
(0.108664 0 0)
(0.108788 0 0)
(0.108732 0 0)
(0.108627 0 0)
(0.108821 0 0)
(0.108687 0 0)
(0.108682 0 0)
(0.108757 0 0)
(0.108758 0 0)
(0.108682 0 0)
(0.1087 0 0)
(0.108762 0 0)
(0.108727 0 0)
(0.108678 0 0)
(0.108795 0 0)
(0.108712 0 0)
(0.108645 0 0)
(0.108822 0 0)
(0.10865 0 0)
(0.108799 0 0)
(0.108723 0 0)
(0.108639 0 0)
(0.108825 0 0)
(0.108655 0 0)
(0.108788 0 0)
(0.108744 0 0)
(0.108621 0 0)
(0.108808 0 0)
(0.108752 0 0)
(0.108674 0 0)
(0.108756 0 0)
(0.108693 0 0)
(0.108796 0 0)
(0.108721 0 0)
(0.108657 0 0)
(0.108796 0 0)
(0.108733 0 0)
(0.1087 0 0)
(0.10875 0 0)
(0.1087 0 0)
(0.108785 0 0)
(0.10875 0 0)
(0.108624 0 0)
(0.108813 0 0)
(0.108754 0 0)
(0.108683 0 0)
(0.108764 0 0)
(0.108692 0 0)
(0.108796 0 0)
(0.108741 0 0)
(0.108636 0 0)
(0.108811 0 0)
(0.10875 0 0)
(0.108694 0 0)
(0.108759 0 0)
(0.108696 0 0)
(0.108802 0 0)
(0.108733 0 0)
(0.108651 0 0)
(0.108834 0 0)
(0.108663 0 0)
(0.108809 0 0)
(0.108732 0 0)
(0.108663 0 0)
(0.108805 0 0)
(0.10874 0 0)
(0.108712 0 0)
(0.108752 0 0)
(0.108727 0 0)
(0.108753 0 0)
(0.108772 0 0)
(0.108666 0 0)
(0.108792 0 0)
(0.108745 0 0)
(0.108776 0 0)
(0.10864 0 0)
(0.108762 0 0)
(0.108839 0 0)
(0.108606 0 0)
(0.108854 0 0)
(0.108749 0 0)
(0.108619 0 0)
(0.108874 0 0)
(0.108728 0 0)
(0.108643 0 0)
(0.108863 0 0)
(0.1087 0 0)
(0.108734 0 0)
(0.108757 0 0)
(0.108705 0 0)
(0.108838 0 0)
(0.108677 0 0)
(0.108731 0 0)
(0.108786 0 0)
(0.108724 0 0)
(0.108786 0 0)
(0.108672 0 0)
(0.108814 0 0)
(0.108769 0 0)
(0.108628 0 0)
(0.108867 0 0)
(0.108751 0 0)
(0.108629 0 0)
(0.108875 0 0)
(0.108749 0 0)
(0.108624 0 0)
(0.108876 0 0)
(0.108742 0 0)
(0.108661 0 0)
(0.108827 0 0)
(0.108726 0 0)
(0.10876 0 0)
(0.108758 0 0)
(0.10873 0 0)
(0.108768 0 0)
(0.108742 0 0)
(0.108756 0 0)
(0.108734 0 0)
(0.108787 0 0)
(0.108696 0 0)
(0.108823 0 0)
(0.108745 0 0)
(0.108682 0 0)
(0.108825 0 0)
(0.108722 0 0)
(0.108778 0 0)
(0.108696 0 0)
(0.108831 0 0)
(0.108754 0 0)
(0.108678 0 0)
(0.108821 0 0)
(0.108727 0 0)
(0.108774 0 0)
(0.10873 0 0)
(0.108781 0 0)
(0.108726 0 0)
(0.108819 0 0)
(0.10874 0 0)
(0.108672 0 0)
(0.108862 0 0)
(0.108684 0 0)
(0.10881 0 0)
(0.108771 0 0)
(0.108663 0 0)
(0.108836 0 0)
(0.108769 0 0)
(0.108715 0 0)
(0.108793 0 0)
(0.108715 0 0)
(0.108811 0 0)
(0.108775 0 0)
(0.108642 0 0)
(0.108899 0 0)
(0.108738 0 0)
(0.108664 0 0)
(0.108837 0 0)
(0.108778 0 0)
(0.108728 0 0)
(0.108752 0 0)
(0.108796 0 0)
(0.108712 0 0)
(0.108817 0 0)
(0.108767 0 0)
(0.108671 0 0)
(0.108876 0 0)
(0.108717 0 0)
(0.108706 0 0)
(0.108835 0 0)
(0.108762 0 0)
(0.108728 0 0)
(0.108791 0 0)
(0.108737 0 0)
(0.108786 0 0)
(0.108794 0 0)
(0.108668 0 0)
(0.108859 0 0)
(0.108774 0 0)
(0.10865 0 0)
(0.108883 0 0)
(0.108767 0 0)
(0.108651 0 0)
(0.108886 0 0)
(0.108757 0 0)
(0.108675 0 0)
(0.108843 0 0)
(0.108774 0 0)
(0.108726 0 0)
(0.108801 0 0)
(0.108719 0 0)
(0.108833 0 0)
(0.108759 0 0)
(0.108694 0 0)
(0.10885 0 0)
(0.10876 0 0)
(0.108744 0 0)
(0.108731 0 0)
(0.10885 0 0)
(0.108715 0 0)
(0.1088 0 0)
(0.108777 0 0)
(0.108695 0 0)
(0.108846 0 0)
(0.108718 0 0)
(0.108842 0 0)
(0.108747 0 0)
(0.108691 0 0)
(0.108843 0 0)
(0.108756 0 0)
(0.108757 0 0)
(0.10882 0 0)
(0.108725 0 0)
(0.108713 0 0)
(0.108901 0 0)
(0.108695 0 0)
(0.108748 0 0)
(0.108812 0 0)
(0.108756 0 0)
(0.108808 0 0)
(0.108694 0 0)
(0.108844 0 0)
(0.108787 0 0)
(0.108659 0 0)
(0.10889 0 0)
(0.108772 0 0)
(0.108657 0 0)
(0.1089 0 0)
(0.108765 0 0)
(0.108655 0 0)
(0.108899 0 0)
(0.108771 0 0)
(0.108663 0 0)
(0.108902 0 0)
(0.108729 0 0)
(0.108778 0 0)
(0.108718 0 0)
(0.108791 0 0)
(0.10886 0 0)
(0.108652 0 0)
(0.108892 0 0)
(0.108744 0 0)
(0.10871 0 0)
(0.108843 0 0)
(0.108752 0 0)
(0.10877 0 0)
(0.108813 0 0)
(0.10873 0 0)
(0.108786 0 0)
(0.108764 0 0)
(0.108821 0 0)
(0.108778 0 0)
(0.108682 0 0)
(0.108858 0 0)
(0.108784 0 0)
(0.108793 0 0)
(0.108672 0 0)
(0.108823 0 0)
(0.108832 0 0)
(0.108679 0 0)
(0.10891 0 0)
(0.108708 0 0)
(0.108721 0 0)
(0.108876 0 0)
(0.108695 0 0)
(0.1088 0 0)
(0.108822 0 0)
(0.108662 0 0)
(0.108912 0 0)
(0.108756 0 0)
(0.108663 0 0)
(0.108914 0 0)
(0.108762 0 0)
(0.108661 0 0)
(0.108912 0 0)
(0.108762 0 0)
(0.108662 0 0)
(0.108916 0 0)
(0.10875 0 0)
(0.108688 0 0)
(0.108867 0 0)
(0.108784 0 0)
(0.108785 0 0)
(0.108673 0 0)
(0.10883 0 0)
(0.10883 0 0)
(0.108688 0 0)
(0.108891 0 0)
(0.108702 0 0)
(0.108781 0 0)
(0.108783 0 0)
(0.108828 0 0)
(0.108746 0 0)
(0.108787 0 0)
(0.108743 0 0)
(0.108795 0 0)
(0.10882 0 0)
(0.108707 0 0)
(0.108843 0 0)
(0.108789 0 0)
(0.108717 0 0)
(0.108827 0 0)
(0.108781 0 0)
(0.108779 0 0)
(0.10874 0 0)
(0.108785 0 0)
(0.108857 0 0)
(0.108645 0 0)
(0.108905 0 0)
(0.108781 0 0)
(0.108659 0 0)
(0.108916 0 0)
(0.108747 0 0)
(0.108725 0 0)
(0.108825 0 0)
(0.108817 0 0)
(0.108722 0 0)
(0.108752 0 0)
(0.108883 0 0)
(0.108699 0 0)
(0.108822 0 0)
(0.108761 0 0)
(0.10875 0 0)
(0.108829 0 0)
(0.108781 0 0)
(0.108733 0 0)
(0.108846 0 0)
(0.108764 0 0)
(0.108781 0 0)
(0.108726 0 0)
(0.108793 0 0)
(0.108858 0 0)
(0.108687 0 0)
(0.10889 0 0)
(0.108718 0 0)
(0.108739 0 0)
(0.108849 0 0)
(0.108737 0 0)
(0.108801 0 0)
(0.10882 0 0)
(0.108775 0 0)
(0.10868 0 0)
(0.108831 0 0)
(0.108848 0 0)
(0.108651 0 0)
(0.108912 0 0)
(0.108748 0 0)
(0.108786 0 0)
)
;

boundaryField
{
    fixedWall
    {
        type            fixedValue;
        value           uniform (0 0 0);
    }
    outlet
    {
        type            pressureInletOutletVelocity;
        value           uniform (0.108786 0 0);
    }
    defaultFaces
    {
        type            empty;
    }
}


// ************************************************************************* //
