/*--------------------------------*- C++ -*----------------------------------*\
| =========                 |                                                 |
| \\      /  F ield         | OpenFOAM: The Open Source CFD Toolbox           |
|  \\    /   O peration     | Version:  2406                                  |
|   \\  /    A nd           | Website:  www.openfoam.com                      |
|    \\/     M anipulation  |                                                 |
\*---------------------------------------------------------------------------*/
FoamFile
{
    version     2.0;
    format      ascii;
    arch        "LSB;label=32;scalar=64";
    class       volScalarField;
    location    "1.5";
    object      CO2;
}
// * * * * * * * * * * * * * * * * * * * * * * * * * * * * * * * * * * * * * //

dimensions      [0 0 0 0 0 0 0];

internalField   nonuniform List<scalar> 
1000
(
0.0709257
0.0709257
0.0709257
0.0709257
0.0709257
0.0709256
0.0709256
0.0709256
0.0709256
0.0709256
0.0709256
0.0709256
0.0709257
0.0709257
0.0709257
0.0709257
0.0709257
0.0709257
0.0709257
0.0709257
0.0709257
0.0709257
0.0709257
0.0709257
0.0709258
0.0709258
0.0709258
0.0709258
0.0709258
0.0709258
0.0709258
0.0709258
0.0709258
0.0709258
0.0709258
0.0709258
0.0709258
0.0709258
0.0709258
0.0709258
0.0709258
0.0709258
0.0709258
0.0709258
0.0709258
0.0709258
0.0709258
0.0709258
0.0709258
0.0709257
0.0709257
0.0709257
0.0709257
0.0709257
0.0709257
0.0709257
0.0709257
0.0709257
0.0709257
0.0709257
0.0709256
0.0709256
0.0709256
0.0709256
0.0709256
0.0709256
0.0709256
0.0709256
0.0709256
0.0709256
0.0709256
0.0709255
0.0709255
0.0709255
0.0709255
0.0709255
0.0709255
0.0709255
0.0709255
0.0709255
0.0709255
0.0709254
0.0709254
0.0709254
0.0709254
0.0709254
0.0709254
0.0709254
0.0709254
0.0709254
0.0709253
0.0709253
0.0709253
0.0709253
0.0709253
0.0709253
0.0709253
0.0709253
0.0709252
0.0709252
0.0709252
0.0709252
0.0709252
0.0709252
0.0709252
0.0709251
0.0709251
0.0709251
0.0709251
0.0709251
0.0709251
0.0709251
0.070925
0.070925
0.070925
0.070925
0.070925
0.070925
0.0709249
0.0709249
0.0709249
0.0709249
0.0709249
0.0709248
0.0709248
0.0709248
0.0709248
0.0709247
0.0709247
0.0709247
0.0709247
0.0709247
0.0709246
0.0709246
0.0709246
0.0709246
0.0709245
0.0709245
0.0709245
0.0709244
0.0709244
0.0709244
0.0709244
0.0709243
0.0709243
0.0709243
0.0709242
0.0709242
0.0709242
0.0709241
0.0709241
0.070924
0.070924
0.070924
0.0709239
0.0709239
0.0709238
0.0709238
0.0709237
0.0709237
0.0709236
0.0709236
0.0709235
0.0709235
0.0709234
0.0709234
0.0709233
0.0709232
0.0709232
0.0709231
0.070923
0.070923
0.0709229
0.0709228
0.0709227
0.0709226
0.0709225
0.0709225
0.0709224
0.0709223
0.0709222
0.070922
0.0709219
0.0709218
0.0709217
0.0709216
0.0709214
0.0709213
0.0709211
0.070921
0.0709208
0.0709206
0.0709204
0.0709202
0.07092
0.0709198
0.0709195
0.0709192
0.070919
0.0709187
0.0709183
0.070918
0.0709176
0.0709172
0.0709167
0.0709162
0.0709156
0.070915
0.0709143
0.0709136
0.0709127
0.0709117
0.0709106
0.0709093
0.0709078
0.0709061
0.070904
0.0709016
0.0708986
0.070895
0.0708903
0.0708843
0.0708761
0.0708644
0.0708468
0.0708179
0.0707653
0.0706534
0.070368
0.069496
0.0664199
0.0532808
0.0263163
0.0128767
0.00633415
0.00312993
0.00155098
0.000769724
0.000382278
0.00018991
9.4348e-05
4.68677e-05
2.32775e-05
1.15587e-05
5.73834e-06
2.84828e-06
1.41357e-06
7.0147e-07
3.4809e-07
1.7274e-07
8.57401e-08
4.25732e-08
2.11552e-08
1.05312e-08
5.24897e-09
2.63705e-09
1.33775e-09
6.86808e-10
4.03651e-10
2.86602e-10
1.78521e-10
1.18757e-10
9.40506e-11
7.91596e-11
7.29899e-11
6.73544e-11
6.44609e-11
6.29882e-11
6.20574e-11
6.14951e-11
6.11713e-11
6.09205e-11
6.08322e-11
6.07659e-11
6.07333e-11
6.07061e-11
6.06922e-11
6.06873e-11
6.06831e-11
6.06807e-11
6.06796e-11
6.06792e-11
6.06789e-11
6.06788e-11
6.06787e-11
6.06787e-11
6.06787e-11
6.06787e-11
6.06788e-11
6.06789e-11
6.06789e-11
6.0679e-11
6.0679e-11
6.06791e-11
6.06791e-11
6.06792e-11
6.06793e-11
6.06793e-11
6.06794e-11
6.06794e-11
6.06795e-11
6.06796e-11
6.06796e-11
6.06797e-11
6.06798e-11
6.06798e-11
6.06799e-11
6.06799e-11
6.068e-11
6.06801e-11
6.06801e-11
6.06802e-11
6.06803e-11
6.06803e-11
6.06804e-11
6.06804e-11
6.06805e-11
6.06805e-11
6.06806e-11
6.06807e-11
6.06807e-11
6.06808e-11
6.06809e-11
6.06809e-11
6.0681e-11
6.0681e-11
6.06811e-11
6.06811e-11
6.06812e-11
6.06813e-11
6.06813e-11
6.06814e-11
6.06814e-11
6.06815e-11
6.06816e-11
6.06816e-11
6.06817e-11
6.06817e-11
6.06818e-11
6.06819e-11
6.06819e-11
6.0682e-11
6.06821e-11
6.06821e-11
6.06822e-11
6.06822e-11
6.06823e-11
6.06823e-11
6.06824e-11
6.06825e-11
6.06825e-11
6.06826e-11
6.06827e-11
6.06827e-11
6.06828e-11
6.06828e-11
6.06829e-11
6.06829e-11
6.0683e-11
6.0683e-11
6.06831e-11
6.06832e-11
6.06832e-11
6.06833e-11
6.06834e-11
6.06834e-11
6.06835e-11
6.06835e-11
6.06836e-11
6.06836e-11
6.06837e-11
6.06838e-11
6.06838e-11
6.06839e-11
6.06839e-11
6.0684e-11
6.06841e-11
6.06841e-11
6.06842e-11
6.06842e-11
6.06843e-11
6.06843e-11
6.06844e-11
6.06845e-11
6.06845e-11
6.06846e-11
6.06846e-11
6.06847e-11
6.06848e-11
6.06848e-11
6.06849e-11
6.06849e-11
6.0685e-11
6.06851e-11
6.06851e-11
6.06852e-11
6.06852e-11
6.06853e-11
6.06854e-11
6.06854e-11
6.06855e-11
6.06855e-11
6.06856e-11
6.06856e-11
6.06857e-11
6.06858e-11
6.06858e-11
6.06859e-11
6.06859e-11
6.0686e-11
6.06861e-11
6.06861e-11
6.06862e-11
6.06862e-11
6.06863e-11
6.06864e-11
6.06864e-11
6.06865e-11
6.06865e-11
6.06866e-11
6.06867e-11
6.06867e-11
6.06868e-11
6.06868e-11
6.06869e-11
6.06869e-11
6.0687e-11
6.06871e-11
6.06871e-11
6.06872e-11
6.06873e-11
6.06873e-11
6.06874e-11
6.06874e-11
6.06875e-11
6.06875e-11
6.06876e-11
6.06877e-11
6.06877e-11
6.06878e-11
6.06879e-11
6.06879e-11
6.0688e-11
6.06881e-11
6.06881e-11
6.06882e-11
6.06882e-11
6.06883e-11
6.06883e-11
6.06884e-11
6.06885e-11
6.06885e-11
6.06886e-11
6.06887e-11
6.06887e-11
6.06888e-11
6.06889e-11
6.06889e-11
6.0689e-11
6.0689e-11
6.06891e-11
6.06891e-11
6.06893e-11
6.06893e-11
6.06894e-11
6.06894e-11
6.06895e-11
6.06896e-11
6.06896e-11
6.06897e-11
6.06897e-11
6.06898e-11
6.06899e-11
6.06899e-11
6.069e-11
6.06901e-11
6.06901e-11
6.06902e-11
6.06903e-11
6.06903e-11
6.06904e-11
6.06904e-11
6.06905e-11
6.06906e-11
6.06907e-11
6.06907e-11
6.06908e-11
6.06908e-11
6.06909e-11
6.0691e-11
6.06911e-11
6.06911e-11
6.06912e-11
6.06913e-11
6.06913e-11
6.06914e-11
6.06914e-11
6.06915e-11
6.06916e-11
6.06916e-11
6.06917e-11
6.06918e-11
6.06918e-11
6.06919e-11
6.0692e-11
6.0692e-11
6.06921e-11
6.06922e-11
6.06922e-11
6.06923e-11
6.06924e-11
6.06924e-11
6.06925e-11
6.06926e-11
6.06926e-11
6.06927e-11
6.06928e-11
6.06928e-11
6.06929e-11
6.0693e-11
6.06931e-11
6.06931e-11
6.06932e-11
6.06933e-11
6.06933e-11
6.06934e-11
6.06935e-11
6.06935e-11
6.06936e-11
6.06937e-11
6.06938e-11
6.06938e-11
6.06939e-11
6.06939e-11
6.0694e-11
6.06941e-11
6.06942e-11
6.06942e-11
6.06943e-11
6.06944e-11
6.06944e-11
6.06945e-11
6.06946e-11
6.06946e-11
6.06947e-11
6.06948e-11
6.06949e-11
6.06949e-11
6.0695e-11
6.06951e-11
6.06952e-11
6.06952e-11
6.06953e-11
6.06954e-11
6.06954e-11
6.06955e-11
6.06956e-11
6.06956e-11
6.06957e-11
6.06958e-11
6.06958e-11
6.06959e-11
6.0696e-11
6.06961e-11
6.06962e-11
6.06962e-11
6.06963e-11
6.06964e-11
6.06965e-11
6.06965e-11
6.06966e-11
6.06966e-11
6.06967e-11
6.06968e-11
6.06969e-11
6.06969e-11
6.0697e-11
6.06971e-11
6.06972e-11
6.06972e-11
6.06973e-11
6.06974e-11
6.06974e-11
6.06975e-11
6.06976e-11
6.06977e-11
6.06977e-11
6.06978e-11
6.06979e-11
6.0698e-11
6.0698e-11
6.06981e-11
6.06982e-11
6.06983e-11
6.06983e-11
6.06984e-11
6.06985e-11
6.06985e-11
6.06986e-11
6.06987e-11
6.06988e-11
6.06989e-11
6.06989e-11
6.0699e-11
6.06991e-11
6.06991e-11
6.06992e-11
6.06993e-11
6.06994e-11
6.06994e-11
6.06995e-11
6.06996e-11
6.06997e-11
6.06997e-11
6.06998e-11
6.06999e-11
6.06999e-11
6.07e-11
6.07001e-11
6.07002e-11
6.07003e-11
6.07004e-11
6.07004e-11
6.07005e-11
6.07005e-11
6.07006e-11
6.07007e-11
6.07008e-11
6.07009e-11
6.07009e-11
6.0701e-11
6.07011e-11
6.07012e-11
6.07012e-11
6.07013e-11
6.07014e-11
6.07014e-11
6.07015e-11
6.07016e-11
6.07017e-11
6.07018e-11
6.07018e-11
6.07019e-11
6.0702e-11
6.07021e-11
6.07022e-11
6.07022e-11
6.07023e-11
6.07024e-11
6.07024e-11
6.07025e-11
6.07026e-11
6.07027e-11
6.07027e-11
6.07028e-11
6.07029e-11
6.0703e-11
6.0703e-11
6.07031e-11
6.07032e-11
6.07033e-11
6.07034e-11
6.07034e-11
6.07035e-11
6.07036e-11
6.07037e-11
6.07038e-11
6.07038e-11
6.07039e-11
6.0704e-11
6.07041e-11
6.07041e-11
6.07042e-11
6.07043e-11
6.07044e-11
6.07044e-11
6.07045e-11
6.07046e-11
6.07047e-11
6.07047e-11
6.07048e-11
6.07049e-11
6.0705e-11
6.07051e-11
6.07051e-11
6.07052e-11
6.07053e-11
6.07053e-11
6.07054e-11
6.07055e-11
6.07056e-11
6.07057e-11
6.07057e-11
6.07058e-11
6.07059e-11
6.0706e-11
6.07061e-11
6.07062e-11
6.07062e-11
6.07063e-11
6.07064e-11
6.07064e-11
6.07066e-11
6.07066e-11
6.07067e-11
6.07067e-11
6.07068e-11
6.07069e-11
6.0707e-11
6.07071e-11
6.07072e-11
6.07073e-11
6.07073e-11
6.07074e-11
6.07075e-11
6.07076e-11
6.07076e-11
6.07077e-11
6.07078e-11
6.07079e-11
6.07079e-11
6.07081e-11
6.07081e-11
6.07082e-11
6.07083e-11
6.07083e-11
6.07084e-11
6.07085e-11
6.07086e-11
6.07087e-11
6.07087e-11
6.07088e-11
6.07089e-11
6.0709e-11
6.07091e-11
6.07092e-11
6.07092e-11
6.07093e-11
6.07094e-11
6.07095e-11
6.07095e-11
6.07096e-11
6.07097e-11
6.07098e-11
6.07099e-11
6.071e-11
6.071e-11
6.07101e-11
6.07102e-11
6.07103e-11
6.07103e-11
6.07104e-11
6.07105e-11
6.07106e-11
6.07106e-11
6.07108e-11
6.07108e-11
6.07109e-11
6.0711e-11
6.07111e-11
6.07111e-11
6.07112e-11
6.07113e-11
6.07114e-11
6.07115e-11
6.07115e-11
6.07116e-11
6.07117e-11
6.07118e-11
6.07118e-11
6.07119e-11
6.0712e-11
6.07121e-11
6.07122e-11
6.07123e-11
6.07124e-11
6.07125e-11
6.07126e-11
6.07126e-11
6.07127e-11
6.07128e-11
6.07128e-11
6.07129e-11
6.0713e-11
6.07131e-11
6.07132e-11
6.07133e-11
6.07134e-11
6.07134e-11
6.07135e-11
6.07136e-11
6.07137e-11
6.07138e-11
6.07139e-11
6.07139e-11
6.0714e-11
6.07141e-11
6.07142e-11
6.07143e-11
6.07143e-11
6.07144e-11
6.07145e-11
6.07146e-11
6.07147e-11
6.07148e-11
6.07148e-11
6.07149e-11
6.0715e-11
6.07151e-11
6.07152e-11
6.07153e-11
6.07153e-11
6.07154e-11
6.07155e-11
6.07156e-11
6.07157e-11
6.07157e-11
6.07159e-11
6.07159e-11
6.0716e-11
6.07161e-11
6.07162e-11
6.07162e-11
6.07163e-11
6.07164e-11
6.07165e-11
6.07166e-11
6.07167e-11
6.07167e-11
6.07169e-11
6.07169e-11
6.0717e-11
6.07171e-11
6.07172e-11
6.07172e-11
6.07173e-11
6.07174e-11
6.07175e-11
6.07176e-11
6.07177e-11
6.07178e-11
6.07179e-11
6.0718e-11
6.07181e-11
6.07181e-11
6.07182e-11
6.07183e-11
6.07184e-11
6.07185e-11
6.07186e-11
6.07186e-11
6.07187e-11
6.07188e-11
6.07189e-11
6.0719e-11
6.07191e-11
6.07191e-11
6.07192e-11
6.07193e-11
6.07194e-11
6.07195e-11
6.07196e-11
6.07197e-11
6.07197e-11
6.07198e-11
6.07199e-11
6.072e-11
6.07201e-11
6.07202e-11
6.07203e-11
6.07204e-11
6.07205e-11
6.07205e-11
6.07206e-11
6.07207e-11
6.07208e-11
6.07209e-11
6.0721e-11
6.07211e-11
6.07211e-11
6.07212e-11
6.07214e-11
6.07214e-11
6.07215e-11
6.07216e-11
6.07217e-11
6.07218e-11
6.07218e-11
6.07219e-11
6.0722e-11
6.07221e-11
6.07222e-11
6.07223e-11
6.07224e-11
6.07225e-11
6.07226e-11
6.07227e-11
6.07227e-11
6.07228e-11
6.07229e-11
6.0723e-11
6.07231e-11
6.07232e-11
6.07233e-11
6.07234e-11
6.07235e-11
6.07236e-11
6.07236e-11
6.07237e-11
6.07238e-11
6.07239e-11
6.0724e-11
6.07241e-11
6.07242e-11
6.07243e-11
6.07244e-11
6.07245e-11
6.07245e-11
6.07246e-11
6.07247e-11
6.07248e-11
6.07249e-11
6.0725e-11
6.07251e-11
6.07252e-11
6.07253e-11
6.07254e-11
6.07254e-11
6.07255e-11
6.07256e-11
6.07257e-11
6.07258e-11
6.07259e-11
6.0726e-11
6.07261e-11
6.07262e-11
6.07263e-11
6.07264e-11
6.07264e-11
6.07265e-11
6.07266e-11
6.07267e-11
6.07268e-11
6.07269e-11
6.0727e-11
6.07271e-11
6.07272e-11
6.07272e-11
6.07274e-11
6.07274e-11
6.07275e-11
6.07276e-11
6.07277e-11
6.07278e-11
6.07279e-11
6.0728e-11
6.07281e-11
6.07282e-11
6.07283e-11
6.07284e-11
6.07285e-11
6.07286e-11
6.07287e-11
6.07287e-11
6.07288e-11
6.0729e-11
6.07291e-11
6.07291e-11
6.07292e-11
6.07293e-11
6.07294e-11
6.07295e-11
6.07296e-11
6.07297e-11
6.07298e-11
6.07299e-11
6.073e-11
6.07301e-11
6.07302e-11
6.07303e-11
6.07303e-11
6.07304e-11
6.07305e-11
6.07306e-11
6.07307e-11
6.07308e-11
6.07309e-11
6.0731e-11
6.07311e-11
6.07312e-11
6.07313e-11
6.07313e-11
6.07315e-11
6.07316e-11
6.07316e-11
6.07317e-11
6.07318e-11
6.07319e-11
6.0732e-11
6.07321e-11
)
;

boundaryField
{
    fixedWall
    {
        type            zeroGradient;
    }
    outlet
    {
        type            inletOutlet;
        inletValue      uniform 0;
        value           uniform 6.07321e-11;
    }
    defaultFaces
    {
        type            empty;
    }
}


// ************************************************************************* //
