/*--------------------------------*- C++ -*----------------------------------*\
| =========                 |                                                 |
| \\      /  F ield         | OpenFOAM: The Open Source CFD Toolbox           |
|  \\    /   O peration     | Version:  2406                                  |
|   \\  /    A nd           | Website:  www.openfoam.com                      |
|    \\/     M anipulation  |                                                 |
\*---------------------------------------------------------------------------*/
FoamFile
{
    version     2.0;
    format      ascii;
    arch        "LSB;label=32;scalar=64";
    class       volScalarField;
    location    "1.5";
    object      H2O;
}
// * * * * * * * * * * * * * * * * * * * * * * * * * * * * * * * * * * * * * //

dimensions      [0 0 0 0 0 0 0];

internalField   nonuniform List<scalar> 
1000
(
0.0580662
0.0580662
0.0580662
0.0580662
0.0580662
0.0580662
0.0580662
0.0580662
0.0580662
0.0580662
0.0580662
0.0580662
0.0580662
0.0580662
0.0580662
0.0580662
0.0580662
0.0580662
0.0580662
0.0580663
0.0580663
0.0580663
0.0580663
0.0580663
0.0580663
0.0580663
0.0580663
0.0580663
0.0580663
0.0580663
0.0580663
0.0580663
0.0580663
0.0580663
0.0580663
0.0580663
0.0580663
0.0580663
0.0580663
0.0580663
0.0580663
0.0580663
0.0580663
0.0580663
0.0580663
0.0580663
0.0580663
0.0580663
0.0580663
0.0580663
0.0580663
0.0580663
0.0580663
0.0580663
0.0580662
0.0580662
0.0580662
0.0580662
0.0580662
0.0580662
0.0580662
0.0580662
0.0580662
0.0580662
0.0580662
0.0580662
0.0580662
0.0580662
0.0580661
0.0580661
0.0580661
0.0580661
0.0580661
0.0580661
0.0580661
0.0580661
0.0580661
0.0580661
0.0580661
0.0580661
0.058066
0.058066
0.058066
0.058066
0.058066
0.058066
0.058066
0.058066
0.058066
0.058066
0.058066
0.0580659
0.0580659
0.0580659
0.0580659
0.0580659
0.0580659
0.0580659
0.0580659
0.0580659
0.0580659
0.0580658
0.0580658
0.0580658
0.0580658
0.0580658
0.0580658
0.0580658
0.0580658
0.0580657
0.0580657
0.0580657
0.0580657
0.0580657
0.0580657
0.0580657
0.0580656
0.0580656
0.0580656
0.0580656
0.0580656
0.0580656
0.0580656
0.0580655
0.0580655
0.0580655
0.0580655
0.0580655
0.0580654
0.0580654
0.0580654
0.0580654
0.0580654
0.0580654
0.0580653
0.0580653
0.0580653
0.0580653
0.0580652
0.0580652
0.0580652
0.0580652
0.0580651
0.0580651
0.0580651
0.0580651
0.058065
0.058065
0.058065
0.058065
0.0580649
0.0580649
0.0580649
0.0580648
0.0580648
0.0580648
0.0580647
0.0580647
0.0580646
0.0580646
0.0580646
0.0580645
0.0580645
0.0580644
0.0580644
0.0580643
0.0580643
0.0580642
0.0580642
0.0580641
0.0580641
0.058064
0.0580639
0.0580639
0.0580638
0.0580637
0.0580637
0.0580636
0.0580635
0.0580634
0.0580633
0.0580633
0.0580632
0.0580631
0.058063
0.0580629
0.0580627
0.0580626
0.0580625
0.0580624
0.0580622
0.0580621
0.0580619
0.0580617
0.0580616
0.0580614
0.0580612
0.058061
0.0580607
0.0580605
0.0580602
0.0580599
0.0580596
0.0580593
0.0580589
0.0580585
0.058058
0.0580575
0.0580569
0.0580563
0.0580556
0.0580548
0.0580539
0.0580528
0.0580516
0.0580502
0.0580485
0.0580465
0.0580441
0.0580411
0.0580373
0.0580323
0.0580256
0.0580161
0.0580016
0.057978
0.0579349
0.0578434
0.0576097
0.0568958
0.0543774
0.0436205
0.0215449
0.010542
0.00518571
0.00256244
0.00126977
0.000630166
0.000312968
0.000155478
7.72419e-05
3.83701e-05
1.90571e-05
9.46297e-06
4.69793e-06
2.33186e-06
1.15728e-06
5.74287e-07
2.84978e-07
1.41421e-07
7.01947e-08
3.48543e-08
1.73196e-08
8.62177e-09
4.29729e-09
2.15893e-09
1.09521e-09
5.62284e-10
3.30465e-10
2.34638e-10
1.46154e-10
9.72257e-11
7.69984e-11
6.48073e-11
5.97562e-11
5.51425e-11
5.27736e-11
5.15679e-11
5.08059e-11
5.03455e-11
5.00804e-11
4.98751e-11
4.98028e-11
4.97485e-11
4.97218e-11
4.96996e-11
4.96882e-11
4.96841e-11
4.96807e-11
4.96788e-11
4.96779e-11
4.96775e-11
4.96772e-11
4.96772e-11
4.96771e-11
4.96771e-11
4.96771e-11
4.96772e-11
4.96772e-11
4.96773e-11
4.96773e-11
4.96773e-11
4.96774e-11
4.96774e-11
4.96775e-11
4.96775e-11
4.96776e-11
4.96776e-11
4.96777e-11
4.96777e-11
4.96778e-11
4.96778e-11
4.96779e-11
4.96779e-11
4.9678e-11
4.9678e-11
4.96781e-11
4.96781e-11
4.96782e-11
4.96782e-11
4.96783e-11
4.96783e-11
4.96784e-11
4.96784e-11
4.96785e-11
4.96785e-11
4.96786e-11
4.96786e-11
4.96787e-11
4.96787e-11
4.96788e-11
4.96788e-11
4.96789e-11
4.96789e-11
4.9679e-11
4.9679e-11
4.96791e-11
4.96791e-11
4.96792e-11
4.96792e-11
4.96793e-11
4.96793e-11
4.96794e-11
4.96794e-11
4.96795e-11
4.96795e-11
4.96796e-11
4.96796e-11
4.96797e-11
4.96797e-11
4.96798e-11
4.96798e-11
4.96799e-11
4.96799e-11
4.968e-11
4.968e-11
4.96801e-11
4.96801e-11
4.96801e-11
4.96802e-11
4.96803e-11
4.96803e-11
4.96804e-11
4.96804e-11
4.96805e-11
4.96805e-11
4.96805e-11
4.96806e-11
4.96806e-11
4.96807e-11
4.96807e-11
4.96808e-11
4.96808e-11
4.96809e-11
4.96809e-11
4.9681e-11
4.9681e-11
4.96811e-11
4.96811e-11
4.96812e-11
4.96812e-11
4.96813e-11
4.96813e-11
4.96814e-11
4.96814e-11
4.96814e-11
4.96815e-11
4.96816e-11
4.96816e-11
4.96816e-11
4.96817e-11
4.96817e-11
4.96818e-11
4.96818e-11
4.96819e-11
4.96819e-11
4.9682e-11
4.9682e-11
4.96821e-11
4.96821e-11
4.96822e-11
4.96822e-11
4.96823e-11
4.96823e-11
4.96824e-11
4.96824e-11
4.96825e-11
4.96825e-11
4.96826e-11
4.96826e-11
4.96827e-11
4.96827e-11
4.96828e-11
4.96828e-11
4.96828e-11
4.96829e-11
4.9683e-11
4.9683e-11
4.9683e-11
4.96831e-11
4.96831e-11
4.96832e-11
4.96832e-11
4.96833e-11
4.96833e-11
4.96834e-11
4.96834e-11
4.96835e-11
4.96835e-11
4.96836e-11
4.96836e-11
4.96837e-11
4.96837e-11
4.96838e-11
4.96838e-11
4.96839e-11
4.96839e-11
4.9684e-11
4.9684e-11
4.96841e-11
4.96841e-11
4.96842e-11
4.96842e-11
4.96843e-11
4.96843e-11
4.96844e-11
4.96844e-11
4.96845e-11
4.96845e-11
4.96846e-11
4.96846e-11
4.96847e-11
4.96847e-11
4.96848e-11
4.96848e-11
4.96849e-11
4.96849e-11
4.9685e-11
4.9685e-11
4.96851e-11
4.96851e-11
4.96852e-11
4.96852e-11
4.96853e-11
4.96853e-11
4.96854e-11
4.96854e-11
4.96855e-11
4.96855e-11
4.96856e-11
4.96856e-11
4.96857e-11
4.96858e-11
4.96858e-11
4.96858e-11
4.96859e-11
4.9686e-11
4.9686e-11
4.96861e-11
4.96861e-11
4.96862e-11
4.96862e-11
4.96863e-11
4.96863e-11
4.96864e-11
4.96864e-11
4.96865e-11
4.96865e-11
4.96866e-11
4.96866e-11
4.96867e-11
4.96867e-11
4.96868e-11
4.96868e-11
4.96869e-11
4.96869e-11
4.9687e-11
4.96871e-11
4.96871e-11
4.96872e-11
4.96872e-11
4.96873e-11
4.96873e-11
4.96874e-11
4.96874e-11
4.96875e-11
4.96875e-11
4.96876e-11
4.96877e-11
4.96877e-11
4.96878e-11
4.96878e-11
4.96879e-11
4.96879e-11
4.9688e-11
4.9688e-11
4.96881e-11
4.96881e-11
4.96882e-11
4.96882e-11
4.96883e-11
4.96884e-11
4.96884e-11
4.96885e-11
4.96885e-11
4.96886e-11
4.96886e-11
4.96887e-11
4.96888e-11
4.96888e-11
4.96889e-11
4.96889e-11
4.9689e-11
4.9689e-11
4.96891e-11
4.96892e-11
4.96892e-11
4.96892e-11
4.96893e-11
4.96894e-11
4.96894e-11
4.96895e-11
4.96896e-11
4.96896e-11
4.96897e-11
4.96897e-11
4.96898e-11
4.96898e-11
4.96899e-11
4.969e-11
4.969e-11
4.96901e-11
4.96901e-11
4.96902e-11
4.96902e-11
4.96903e-11
4.96903e-11
4.96904e-11
4.96905e-11
4.96905e-11
4.96906e-11
4.96906e-11
4.96907e-11
4.96908e-11
4.96908e-11
4.96909e-11
4.96909e-11
4.9691e-11
4.96911e-11
4.96911e-11
4.96912e-11
4.96912e-11
4.96913e-11
4.96913e-11
4.96914e-11
4.96915e-11
4.96915e-11
4.96916e-11
4.96917e-11
4.96917e-11
4.96917e-11
4.96918e-11
4.96919e-11
4.96919e-11
4.9692e-11
4.9692e-11
4.96921e-11
4.96922e-11
4.96922e-11
4.96923e-11
4.96923e-11
4.96924e-11
4.96925e-11
4.96925e-11
4.96926e-11
4.96926e-11
4.96927e-11
4.96928e-11
4.96928e-11
4.96929e-11
4.96929e-11
4.9693e-11
4.96931e-11
4.96931e-11
4.96932e-11
4.96932e-11
4.96933e-11
4.96933e-11
4.96934e-11
4.96935e-11
4.96935e-11
4.96936e-11
4.96937e-11
4.96937e-11
4.96938e-11
4.96938e-11
4.96939e-11
4.9694e-11
4.9694e-11
4.96941e-11
4.96941e-11
4.96942e-11
4.96943e-11
4.96943e-11
4.96944e-11
4.96945e-11
4.96945e-11
4.96946e-11
4.96947e-11
4.96947e-11
4.96948e-11
4.96948e-11
4.96949e-11
4.96949e-11
4.9695e-11
4.96951e-11
4.96951e-11
4.96952e-11
4.96953e-11
4.96953e-11
4.96954e-11
4.96954e-11
4.96955e-11
4.96956e-11
4.96956e-11
4.96957e-11
4.96957e-11
4.96958e-11
4.96959e-11
4.9696e-11
4.9696e-11
4.96961e-11
4.96961e-11
4.96962e-11
4.96962e-11
4.96963e-11
4.96964e-11
4.96964e-11
4.96965e-11
4.96966e-11
4.96966e-11
4.96967e-11
4.96967e-11
4.96968e-11
4.96969e-11
4.96969e-11
4.9697e-11
4.9697e-11
4.96971e-11
4.96972e-11
4.96973e-11
4.96973e-11
4.96974e-11
4.96974e-11
4.96975e-11
4.96976e-11
4.96976e-11
4.96977e-11
4.96978e-11
4.96978e-11
4.96979e-11
4.96979e-11
4.9698e-11
4.96981e-11
4.96981e-11
4.96982e-11
4.96982e-11
4.96983e-11
4.96984e-11
4.96984e-11
4.96985e-11
4.96985e-11
4.96986e-11
4.96987e-11
4.96987e-11
4.96988e-11
4.96989e-11
4.96989e-11
4.9699e-11
4.96991e-11
4.96991e-11
4.96992e-11
4.96992e-11
4.96993e-11
4.96994e-11
4.96995e-11
4.96995e-11
4.96996e-11
4.96997e-11
4.96997e-11
4.96998e-11
4.96998e-11
4.96999e-11
4.97e-11
4.97e-11
4.97001e-11
4.97002e-11
4.97002e-11
4.97003e-11
4.97003e-11
4.97004e-11
4.97005e-11
4.97006e-11
4.97006e-11
4.97007e-11
4.97008e-11
4.97008e-11
4.97009e-11
4.97009e-11
4.9701e-11
4.97011e-11
4.97012e-11
4.97012e-11
4.97013e-11
4.97013e-11
4.97014e-11
4.97015e-11
4.97015e-11
4.97016e-11
4.97016e-11
4.97017e-11
4.97018e-11
4.97018e-11
4.97019e-11
4.9702e-11
4.97021e-11
4.97021e-11
4.97022e-11
4.97023e-11
4.97023e-11
4.97024e-11
4.97024e-11
4.97025e-11
4.97026e-11
4.97026e-11
4.97027e-11
4.97028e-11
4.97028e-11
4.97029e-11
4.9703e-11
4.9703e-11
4.97031e-11
4.97032e-11
4.97032e-11
4.97033e-11
4.97034e-11
4.97034e-11
4.97035e-11
4.97035e-11
4.97036e-11
4.97037e-11
4.97037e-11
4.97038e-11
4.97039e-11
4.97039e-11
4.9704e-11
4.97041e-11
4.97041e-11
4.97042e-11
4.97043e-11
4.97043e-11
4.97044e-11
4.97045e-11
4.97046e-11
4.97046e-11
4.97047e-11
4.97048e-11
4.97048e-11
4.97049e-11
4.97049e-11
4.9705e-11
4.97051e-11
4.97051e-11
4.97052e-11
4.97053e-11
4.97054e-11
4.97054e-11
4.97055e-11
4.97056e-11
4.97056e-11
4.97057e-11
4.97058e-11
4.97058e-11
4.97059e-11
4.9706e-11
4.9706e-11
4.97061e-11
4.97062e-11
4.97062e-11
4.97063e-11
4.97064e-11
4.97064e-11
4.97065e-11
4.97066e-11
4.97066e-11
4.97067e-11
4.97068e-11
4.97068e-11
4.97069e-11
4.9707e-11
4.9707e-11
4.97071e-11
4.97072e-11
4.97072e-11
4.97073e-11
4.97074e-11
4.97074e-11
4.97075e-11
4.97076e-11
4.97077e-11
4.97077e-11
4.97078e-11
4.97078e-11
4.97079e-11
4.9708e-11
4.97081e-11
4.97081e-11
4.97082e-11
4.97083e-11
4.97084e-11
4.97084e-11
4.97085e-11
4.97086e-11
4.97086e-11
4.97087e-11
4.97088e-11
4.97088e-11
4.97089e-11
4.9709e-11
4.9709e-11
4.97091e-11
4.97092e-11
4.97093e-11
4.97093e-11
4.97094e-11
4.97095e-11
4.97095e-11
4.97096e-11
4.97097e-11
4.97098e-11
4.97098e-11
4.97099e-11
4.971e-11
4.971e-11
4.97101e-11
4.97102e-11
4.97102e-11
4.97103e-11
4.97104e-11
4.97104e-11
4.97105e-11
4.97106e-11
4.97106e-11
4.97107e-11
4.97108e-11
4.97109e-11
4.9711e-11
4.9711e-11
4.97111e-11
4.97112e-11
4.97112e-11
4.97113e-11
4.97114e-11
4.97114e-11
4.97115e-11
4.97116e-11
4.97116e-11
4.97117e-11
4.97118e-11
4.97119e-11
4.97119e-11
4.9712e-11
4.97121e-11
4.97122e-11
4.97122e-11
4.97123e-11
4.97124e-11
4.97124e-11
4.97125e-11
4.97126e-11
4.97127e-11
4.97127e-11
4.97128e-11
4.97129e-11
4.97129e-11
4.9713e-11
4.97131e-11
4.97132e-11
4.97132e-11
4.97133e-11
4.97134e-11
4.97135e-11
4.97135e-11
4.97136e-11
4.97137e-11
4.97138e-11
4.97138e-11
4.97139e-11
4.9714e-11
4.97141e-11
4.97141e-11
4.97142e-11
4.97143e-11
4.97144e-11
4.97144e-11
4.97145e-11
4.97146e-11
4.97146e-11
4.97147e-11
4.97148e-11
4.97149e-11
4.97149e-11
4.9715e-11
4.97151e-11
4.97152e-11
4.97152e-11
4.97153e-11
4.97154e-11
4.97155e-11
4.97155e-11
4.97156e-11
4.97157e-11
4.97158e-11
4.97158e-11
4.97159e-11
4.9716e-11
4.97161e-11
4.97161e-11
4.97162e-11
4.97163e-11
4.97164e-11
4.97164e-11
4.97165e-11
4.97166e-11
4.97166e-11
4.97167e-11
4.97168e-11
4.97169e-11
4.9717e-11
4.9717e-11
4.97171e-11
4.97172e-11
4.97173e-11
4.97173e-11
4.97174e-11
4.97175e-11
4.97176e-11
4.97176e-11
4.97177e-11
4.97178e-11
4.97179e-11
4.97179e-11
4.9718e-11
4.97181e-11
4.97182e-11
4.97183e-11
4.97183e-11
4.97184e-11
4.97185e-11
4.97185e-11
4.97186e-11
4.97187e-11
4.97188e-11
4.97189e-11
4.97189e-11
4.9719e-11
4.97191e-11
4.97192e-11
4.97193e-11
4.97193e-11
4.97194e-11
4.97195e-11
4.97195e-11
4.97196e-11
4.97197e-11
4.97198e-11
4.97198e-11
4.97199e-11
4.972e-11
4.97201e-11
4.97202e-11
4.97202e-11
4.97203e-11
4.97204e-11
4.97205e-11
4.97205e-11
4.97206e-11
4.97207e-11
4.97208e-11
4.97209e-11
)
;

boundaryField
{
    fixedWall
    {
        type            zeroGradient;
    }
    outlet
    {
        type            inletOutlet;
        inletValue      uniform 0;
        value           uniform 4.97209e-11;
    }
    defaultFaces
    {
        type            empty;
    }
}


// ************************************************************************* //
