/*--------------------------------*- C++ -*----------------------------------*\
| =========                 |                                                 |
| \\      /  F ield         | OpenFOAM: The Open Source CFD Toolbox           |
|  \\    /   O peration     | Version:  2406                                  |
|   \\  /    A nd           | Website:  www.openfoam.com                      |
|    \\/     M anipulation  |                                                 |
\*---------------------------------------------------------------------------*/
FoamFile
{
    version     2.0;
    format      ascii;
    arch        "LSB;label=32;scalar=64";
    class       surfaceScalarField;
    location    "1.5";
    object      phi;
}
// * * * * * * * * * * * * * * * * * * * * * * * * * * * * * * * * * * * * * //

dimensions      [1 0 -1 0 0 0 0];

oriented        oriented;

internalField   nonuniform List<scalar> 
999
(
-3.83341e-07
-1.0083e-06
-1.69307e-06
-2.38141e-06
-3.05286e-06
-3.69928e-06
-4.31661e-06
-4.90035e-06
-5.4864e-06
-6.03926e-06
-6.56364e-06
-7.0625e-06
-7.53776e-06
-7.99084e-06
-8.42292e-06
-8.83495e-06
-9.22774e-06
-9.60199e-06
-9.95835e-06
-1.02974e-05
-1.06196e-05
-1.09256e-05
-1.12158e-05
-1.14906e-05
-1.17507e-05
-1.19964e-05
-1.22282e-05
-1.24465e-05
-1.26518e-05
-1.28445e-05
-1.3025e-05
-1.31937e-05
-1.3351e-05
-1.34973e-05
-1.36321e-05
-1.37585e-05
-1.3876e-05
-1.39846e-05
-1.40847e-05
-1.41766e-05
-1.42608e-05
-1.43378e-05
-1.44079e-05
-1.44716e-05
-1.45294e-05
-1.45815e-05
-1.46285e-05
-1.46707e-05
-1.47084e-05
-1.47421e-05
-1.4772e-05
-1.47984e-05
-1.48217e-05
-1.48422e-05
-1.48601e-05
-1.48757e-05
-1.48892e-05
-1.49009e-05
-1.49109e-05
-1.49195e-05
-1.49269e-05
-1.49331e-05
-1.49383e-05
-1.49427e-05
-1.49464e-05
-1.49495e-05
-1.49521e-05
-1.49542e-05
-1.4956e-05
-1.49576e-05
-1.49589e-05
-1.49601e-05
-1.49611e-05
-1.49621e-05
-1.4963e-05
-1.49638e-05
-1.49647e-05
-1.49656e-05
-1.49666e-05
-1.49676e-05
-1.49686e-05
-1.49697e-05
-1.49709e-05
-1.49721e-05
-1.49734e-05
-1.49748e-05
-1.49763e-05
-1.49778e-05
-1.49794e-05
-1.49811e-05
-1.49828e-05
-1.49846e-05
-1.49864e-05
-1.49883e-05
-1.49903e-05
-1.49922e-05
-1.49942e-05
-1.49963e-05
-1.49984e-05
-1.50005e-05
-1.50026e-05
-1.50047e-05
-1.50068e-05
-1.5009e-05
-1.50111e-05
-1.50133e-05
-1.50154e-05
-1.50175e-05
-1.50197e-05
-1.50218e-05
-1.50238e-05
-1.50259e-05
-1.5028e-05
-1.503e-05
-1.5032e-05
-1.50339e-05
-1.50359e-05
-1.50378e-05
-1.50397e-05
-1.50415e-05
-1.50433e-05
-1.50451e-05
-1.50468e-05
-1.50486e-05
-1.50503e-05
-1.50519e-05
-1.50536e-05
-1.50552e-05
-1.50568e-05
-1.50584e-05
-1.506e-05
-1.50616e-05
-1.50632e-05
-1.50648e-05
-1.50664e-05
-1.5068e-05
-1.50696e-05
-1.50713e-05
-1.5073e-05
-1.50747e-05
-1.50765e-05
-1.50783e-05
-1.50802e-05
-1.50821e-05
-1.5084e-05
-1.5086e-05
-1.5088e-05
-1.50901e-05
-1.50922e-05
-1.50943e-05
-1.50965e-05
-1.50987e-05
-1.51009e-05
-1.51032e-05
-1.51054e-05
-1.51077e-05
-1.511e-05
-1.51123e-05
-1.51147e-05
-1.5117e-05
-1.51193e-05
-1.51216e-05
-1.51239e-05
-1.51262e-05
-1.51284e-05
-1.51306e-05
-1.51328e-05
-1.51349e-05
-1.51369e-05
-1.51389e-05
-1.51408e-05
-1.51425e-05
-1.51442e-05
-1.51458e-05
-1.51473e-05
-1.51486e-05
-1.51499e-05
-1.51511e-05
-1.51523e-05
-1.51534e-05
-1.51545e-05
-1.51555e-05
-1.51567e-05
-1.51578e-05
-1.51591e-05
-1.51604e-05
-1.51618e-05
-1.51633e-05
-1.51649e-05
-1.51666e-05
-1.51683e-05
-1.51701e-05
-1.51719e-05
-1.51736e-05
-1.51753e-05
-1.5177e-05
-1.51786e-05
-1.518e-05
-1.51814e-05
-1.51827e-05
-1.5184e-05
-1.51852e-05
-1.51863e-05
-1.51874e-05
-1.51885e-05
-1.51896e-05
-1.51907e-05
-1.51917e-05
-1.51926e-05
-1.51932e-05
-1.51933e-05
-1.51926e-05
-1.51911e-05
-1.51883e-05
-1.51841e-05
-1.51782e-05
-1.51702e-05
-1.51598e-05
-1.51463e-05
-1.51291e-05
-1.5107e-05
-1.50787e-05
-1.50429e-05
-1.49987e-05
-1.49434e-05
-1.48639e-05
-1.47166e-05
-1.43983e-05
-1.36492e-05
-1.14052e-05
-7.52409e-07
0.000156028
0.000335049
0.000509218
0.000651706
0.000751541
0.000814117
0.000850676
0.000871172
0.000882398
0.000888468
0.000891726
0.000893467
0.000894394
0.000894886
0.000895145
0.00089528
0.00089535
0.000895384
0.000895399
0.000895405
0.000895405
0.000895402
0.000895398
0.000895393
0.000895388
0.000895383
0.000895377
0.000895371
0.000895365
0.00089536
0.000895354
0.000895348
0.000895343
0.000895337
0.000895331
0.000895325
0.00089532
0.000895314
0.000895308
0.000895303
0.000895297
0.000895291
0.000895285
0.00089528
0.000895274
0.000895269
0.000895263
0.000895257
0.000895252
0.000895246
0.00089524
0.000895235
0.000895229
0.000895224
0.000895218
0.000895212
0.000895207
0.000895201
0.000895196
0.00089519
0.000895185
0.000895179
0.000895173
0.000895168
0.000895162
0.000895157
0.000895151
0.000895146
0.00089514
0.000895135
0.000895129
0.000895124
0.000895118
0.000895113
0.000895108
0.000895102
0.000895097
0.000895091
0.000895086
0.00089508
0.000895075
0.00089507
0.000895064
0.000895059
0.000895053
0.000895048
0.000895043
0.000895037
0.000895032
0.000895027
0.000895021
0.000895016
0.000895011
0.000895005
0.000895
0.000894995
0.000894989
0.000894984
0.000894979
0.000894974
0.000894968
0.000894963
0.000894958
0.000894953
0.000894947
0.000894942
0.000894937
0.000894932
0.000894926
0.000894921
0.000894916
0.000894911
0.000894906
0.000894901
0.000894895
0.00089489
0.000894885
0.00089488
0.000894875
0.00089487
0.000894865
0.000894859
0.000894854
0.000894849
0.000894844
0.000894839
0.000894834
0.000894829
0.000894824
0.000894819
0.000894814
0.000894809
0.000894804
0.000894799
0.000894794
0.000894789
0.000894784
0.000894779
0.000894774
0.000894769
0.000894764
0.000894759
0.000894754
0.000894749
0.000894744
0.000894739
0.000894734
0.000894729
0.000894724
0.000894719
0.000894714
0.000894709
0.000894705
0.0008947
0.000894695
0.00089469
0.000894685
0.00089468
0.000894675
0.000894671
0.000894666
0.000894661
0.000894656
0.000894651
0.000894646
0.000894642
0.000894637
0.000894632
0.000894627
0.000894623
0.000894618
0.000894613
0.000894608
0.000894604
0.000894599
0.000894594
0.00089459
0.000894585
0.00089458
0.000894575
0.000894571
0.000894566
0.000894561
0.000894557
0.000894552
0.000894547
0.000894543
0.000894538
0.000894534
0.000894529
0.000894524
0.00089452
0.000894515
0.000894511
0.000894506
0.000894502
0.000894497
0.000894492
0.000894488
0.000894483
0.000894479
0.000894474
0.00089447
0.000894465
0.000894461
0.000894456
0.000894452
0.000894447
0.000894443
0.000894438
0.000894434
0.000894429
0.000894425
0.000894421
0.000894416
0.000894412
0.000894407
0.000894403
0.000894399
0.000894394
0.00089439
0.000894385
0.000894381
0.000894377
0.000894372
0.000894368
0.000894364
0.000894359
0.000894355
0.000894351
0.000894346
0.000894342
0.000894338
0.000894334
0.000894329
0.000894325
0.000894321
0.000894317
0.000894312
0.000894308
0.000894304
0.0008943
0.000894296
0.000894291
0.000894287
0.000894283
0.000894279
0.000894275
0.00089427
0.000894266
0.000894262
0.000894258
0.000894254
0.00089425
0.000894246
0.000894241
0.000894237
0.000894233
0.000894229
0.000894225
0.000894221
0.000894217
0.000894213
0.000894209
0.000894205
0.000894201
0.000894197
0.000894193
0.000894189
0.000894185
0.000894181
0.000894177
0.000894173
0.000894169
0.000894165
0.000894161
0.000894157
0.000894153
0.000894149
0.000894145
0.000894141
0.000894137
0.000894133
0.00089413
0.000894126
0.000894122
0.000894118
0.000894114
0.00089411
0.000894106
0.000894103
0.000894099
0.000894095
0.000894091
0.000894087
0.000894084
0.00089408
0.000894076
0.000894072
0.000894068
0.000894065
0.000894061
0.000894057
0.000894053
0.00089405
0.000894046
0.000894042
0.000894039
0.000894035
0.000894031
0.000894027
0.000894024
0.00089402
0.000894016
0.000894013
0.000894009
0.000894006
0.000894002
0.000893998
0.000893995
0.000893991
0.000893987
0.000893984
0.00089398
0.000893977
0.000893973
0.00089397
0.000893966
0.000893962
0.000893959
0.000893955
0.000893952
0.000893948
0.000893945
0.000893941
0.000893938
0.000893934
0.000893931
0.000893928
0.000893924
0.000893921
0.000893917
0.000893914
0.00089391
0.000893907
0.000893903
0.0008939
0.000893897
0.000893893
0.00089389
0.000893887
0.000893883
0.00089388
0.000893877
0.000893873
0.00089387
0.000893867
0.000893863
0.00089386
0.000893857
0.000893853
0.00089385
0.000893847
0.000893843
0.00089384
0.000893837
0.000893834
0.00089383
0.000893827
0.000893824
0.000893821
0.000893818
0.000893814
0.000893811
0.000893808
0.000893805
0.000893802
0.000893799
0.000893795
0.000893792
0.000893789
0.000893786
0.000893783
0.00089378
0.000893777
0.000893774
0.00089377
0.000893767
0.000893764
0.000893761
0.000893758
0.000893755
0.000893752
0.000893749
0.000893746
0.000893743
0.00089374
0.000893737
0.000893734
0.000893731
0.000893728
0.000893725
0.000893722
0.000893719
0.000893716
0.000893713
0.00089371
0.000893707
0.000893705
0.000893702
0.000893699
0.000893696
0.000893693
0.00089369
0.000893687
0.000893684
0.000893682
0.000893679
0.000893676
0.000893673
0.00089367
0.000893667
0.000893665
0.000893662
0.000893659
0.000893656
0.000893653
0.000893651
0.000893648
0.000893645
0.000893642
0.00089364
0.000893637
0.000893634
0.000893632
0.000893629
0.000893626
0.000893623
0.000893621
0.000893618
0.000893615
0.000893613
0.00089361
0.000893608
0.000893605
0.000893602
0.0008936
0.000893597
0.000893594
0.000893592
0.000893589
0.000893587
0.000893584
0.000893582
0.000893579
0.000893577
0.000893574
0.000893571
0.000893569
0.000893566
0.000893564
0.000893561
0.000893559
0.000893556
0.000893554
0.000893551
0.000893549
0.000893547
0.000893544
0.000893542
0.000893539
0.000893537
0.000893534
0.000893532
0.00089353
0.000893527
0.000893525
0.000893523
0.00089352
0.000893518
0.000893515
0.000893513
0.000893511
0.000893508
0.000893506
0.000893504
0.000893502
0.000893499
0.000893497
0.000893495
0.000893492
0.00089349
0.000893488
0.000893486
0.000893483
0.000893481
0.000893479
0.000893477
0.000893475
0.000893472
0.00089347
0.000893468
0.000893466
0.000893464
0.000893462
0.000893459
0.000893457
0.000893455
0.000893453
0.000893451
0.000893449
0.000893447
0.000893445
0.000893443
0.00089344
0.000893438
0.000893436
0.000893434
0.000893432
0.00089343
0.000893428
0.000893426
0.000893424
0.000893422
0.00089342
0.000893418
0.000893416
0.000893414
0.000893412
0.00089341
0.000893408
0.000893406
0.000893404
0.000893403
0.000893401
0.000893399
0.000893397
0.000893395
0.000893393
0.000893391
0.000893389
0.000893387
0.000893386
0.000893384
0.000893382
0.00089338
0.000893378
0.000893376
0.000893375
0.000893373
0.000893371
0.000893369
0.000893367
0.000893366
0.000893364
0.000893362
0.00089336
0.000893359
0.000893357
0.000893355
0.000893354
0.000893352
0.00089335
0.000893348
0.000893347
0.000893345
0.000893343
0.000893342
0.00089334
0.000893339
0.000893337
0.000893335
0.000893334
0.000893332
0.00089333
0.000893329
0.000893327
0.000893326
0.000893324
0.000893323
0.000893321
0.000893319
0.000893318
0.000893316
0.000893315
0.000893313
0.000893312
0.00089331
0.000893309
0.000893307
0.000893306
0.000893304
0.000893303
0.000893302
0.0008933
0.000893299
0.000893297
0.000893296
0.000893294
0.000893293
0.000893292
0.00089329
0.000893289
0.000893288
0.000893286
0.000893285
0.000893283
0.000893282
0.000893281
0.000893279
0.000893278
0.000893277
0.000893276
0.000893274
0.000893273
0.000893272
0.00089327
0.000893269
0.000893268
0.000893267
0.000893265
0.000893264
0.000893263
0.000893262
0.000893261
0.000893259
0.000893258
0.000893257
0.000893256
0.000893255
0.000893254
0.000893252
0.000893251
0.00089325
0.000893249
0.000893248
0.000893247
0.000893246
0.000893245
0.000893244
0.000893242
0.000893241
0.00089324
0.000893239
0.000893238
0.000893237
0.000893236
0.000893235
0.000893234
0.000893233
0.000893232
0.000893231
0.00089323
0.000893229
0.000893228
0.000893227
0.000893226
0.000893225
0.000893224
0.000893224
0.000893223
0.000893222
0.000893221
0.00089322
0.000893219
0.000893218
0.000893217
0.000893216
0.000893216
0.000893215
0.000893214
0.000893213
0.000893212
0.000893211
0.000893211
0.00089321
0.000893209
0.000893208
0.000893207
0.000893207
0.000893206
0.000893205
0.000893204
0.000893204
0.000893203
0.000893202
0.000893202
0.000893201
0.0008932
0.000893199
0.000893199
0.000893198
0.000893197
0.000893197
0.000893196
0.000893196
0.000893195
0.000893194
0.000893194
0.000893193
0.000893192
0.000893192
0.000893191
0.000893191
0.00089319
0.00089319
0.000893189
0.000893189
0.000893188
0.000893187
0.000893187
0.000893186
0.000893186
0.000893185
0.000893185
0.000893184
0.000893184
0.000893183
0.000893183
0.000893183
0.000893182
0.000893182
0.000893181
0.000893181
0.00089318
0.00089318
0.00089318
0.000893179
0.000893179
0.000893179
0.000893178
0.000893178
0.000893177
0.000893177
0.000893177
0.000893176
0.000893176
0.000893176
0.000893176
0.000893175
0.000893175
0.000893175
0.000893174
0.000893174
0.000893174
0.000893174
0.000893173
0.000893173
0.000893173
0.000893173
0.000893173
0.000893172
0.000893172
0.000893172
0.000893172
0.000893172
0.000893172
0.000893171
0.000893171
0.000893171
0.000893171
0.000893171
0.000893171
0.000893171
0.000893171
0.00089317
0.00089317
0.00089317
)
;

boundaryField
{
    fixedWall
    {
        type            calculated;
        value           uniform 0;
    }
    outlet
    {
        type            calculated;
        value           uniform 0.00089317;
    }
    defaultFaces
    {
        type            empty;
    }
}


// ************************************************************************* //
