/*--------------------------------*- C++ -*----------------------------------*\
| =========                 |                                                 |
| \\      /  F ield         | OpenFOAM: The Open Source CFD Toolbox           |
|  \\    /   O peration     | Version:  2406                                  |
|   \\  /    A nd           | Website:  www.openfoam.com                      |
|    \\/     M anipulation  |                                                 |
\*---------------------------------------------------------------------------*/
FoamFile
{
    version     2.0;
    format      ascii;
    arch        "LSB;label=32;scalar=64";
    class       volScalarField;
    location    "1.5";
    object      Qdot;
}
// * * * * * * * * * * * * * * * * * * * * * * * * * * * * * * * * * * * * * //

dimensions      [1 -1 -3 0 0 0 0];

internalField   nonuniform List<scalar> 
1000
(
3.03729e-08
7.97989e-08
1.50737e-06
2.27178e-05
0.000172824
0.000824688
0.00285707
0.0078599
0.0181409
0.0366178
0.0667755
0.111794
0.174467
0.256781
0.359693
0.48304
0.625589
0.785198
0.959046
1.1439
1.33638
1.53318
1.7313
1.92809
2.12141
2.30959
2.49144
2.66622
2.83353
2.99332
3.14573
3.29111
3.42991
3.56267
3.68913
3.81028
3.9284
4.04254
4.15319
4.26077
4.36567
4.46823
4.56875
4.6675
4.76469
4.86054
4.95521
5.04887
5.14167
5.23373
5.32518
5.41613
5.50668
5.59694
5.68683
5.77544
5.86568
5.95604
6.04659
6.13741
6.22858
6.32019
6.41236
6.50517
6.59873
6.69312
6.78845
6.8848
6.98227
7.08094
7.18092
7.28229
7.38514
7.48956
7.59564
7.70347
7.81315
7.92477
8.03841
8.15418
8.27217
8.39248
8.5152
8.64043
8.76827
8.89883
9.03222
9.16853
9.30787
9.45037
9.59612
9.74526
9.89789
10.0541
10.2141
10.378
10.5459
10.7179
10.8942
11.0749
11.2602
11.4503
11.6452
11.8452
12.0504
12.261
12.4772
12.6993
12.9272
13.1614
13.402
13.6492
13.9032
14.1643
14.4327
14.7088
14.9927
15.2847
15.5851
15.8942
16.2123
16.5398
16.877
17.2243
17.5819
17.9503
18.3299
18.721
19.1236
19.5323
19.9611
20.4038
20.8609
21.3331
21.8212
22.3258
22.8477
23.3878
23.9468
24.5258
25.1259
25.748
26.3933
27.0632
27.7588
28.4817
29.2332
30.015
30.8288
31.6763
32.5594
33.4802
34.4409
35.4437
36.4911
37.5859
38.7248
39.9028
41.1573
42.4716
43.8493
45.2947
46.8119
48.4059
50.0815
51.8442
53.7
55.655
57.7161
59.8907
62.1868
64.6129
67.1787
69.8944
72.7714
75.8223
79.0611
82.5034
86.1537
89.9915
94.1576
98.6124
103.386
108.51
114.022
119.962
126.375
133.312
140.83
148.993
157.876
167.56
178.139
189.707
202.228
216.257
231.749
248.912
267.993
289.294
313.185
340.113
370.631
405.417
445.308
491.343
544.816
607.358
681.037
768.52
873.29
999.975
1154.82
1346.4
1586.7
1892.87
2290.03
2816.02
3529.65
4525.79
5964.98
8137.24
11609.6
17587.7
28862.2
52521.4
108482
259320
738318
2.47839e+06
9.64708e+06
3.19255e+07
514632
1783.58
10.4837
0.226044
0.018527
0.00415193
0.00177515
0.00111062
0.000860873
0.000750533
0.00069734
0.000670448
0.000656594
0.000649218
0.000645455
0.000643372
0.000642262
0.000641707
0.000641373
0.000641271
0.000641178
0.000641129
0.000641104
0.000641092
0.000641086
0.000641084
0.000641084
0.000641084
0.000641086
0.000641088
0.000641089
0.000641091
0.000641092
0.000641094
0.000641096
0.000641098
0.000641099
0.000641101
0.000641103
0.000641105
0.000641107
0.000641109
0.00064111
0.000641113
0.000641114
0.000641116
0.000641118
0.00064112
0.000641122
0.000641124
0.000641126
0.000641128
0.000641129
0.000641131
0.000641133
0.000641135
0.000641137
0.000641139
0.000641141
0.000641143
0.000641144
0.000641147
0.000641149
0.00064115
0.000641152
0.000641154
0.000641156
0.000641158
0.00064116
0.000641161
0.000641164
0.000641165
0.000641167
0.000641169
0.000641171
0.000641173
0.000641174
0.000641177
0.000641178
0.00064118
0.000641183
0.000641184
0.000641186
0.000641188
0.00064119
0.000641192
0.000641193
0.000641195
0.000641197
0.000641199
0.000641201
0.000641203
0.000641205
0.000641207
0.000641208
0.00064121
0.000641212
0.000641214
0.000641215
0.000641218
0.000641219
0.000641221
0.000641223
0.000641225
0.000641227
0.000641229
0.000641231
0.000641233
0.000641235
0.000641236
0.000641238
0.00064124
0.000641241
0.000641243
0.000641245
0.000641247
0.000641249
0.000641251
0.000641253
0.000641255
0.000641257
0.000641258
0.00064126
0.000641262
0.000641264
0.000641265
0.000641268
0.000641269
0.000641272
0.000641273
0.000641275
0.000641277
0.000641278
0.00064128
0.000641282
0.000641284
0.000641286
0.000641287
0.000641289
0.000641292
0.000641293
0.000641295
0.000641297
0.000641298
0.000641301
0.000641303
0.000641304
0.000641306
0.000641308
0.00064131
0.000641311
0.000641313
0.000641315
0.000641317
0.000641319
0.000641321
0.000641322
0.000641324
0.000641326
0.000641328
0.00064133
0.000641257
0.000641258
0.00064126
0.000641262
0.000641264
0.000641266
0.000641268
0.00064127
0.000641272
0.000641273
0.000641275
0.000641277
0.000641279
0.000641281
0.000641282
0.000641284
0.000641361
0.000641288
0.000641289
0.000641292
0.000641294
0.000641295
0.000641298
0.000641299
0.000641301
0.000641303
0.000641304
0.000641306
0.000641308
0.00064131
0.000641312
0.000641314
0.000641315
0.000641317
0.000641319
0.000641321
0.000641323
0.000641325
0.000641327
0.000641328
0.00064133
0.000641332
0.000641334
0.000641336
0.000641337
0.000641339
0.000641341
0.000641344
0.000641345
0.000641347
0.000641349
0.00064135
0.000641352
0.000641354
0.000641356
0.000641357
0.00064136
0.000641362
0.000641363
0.000641366
0.000641367
0.000641369
0.000641371
0.000641373
0.000641375
0.000641376
0.000641378
0.00064138
0.000641382
0.000641385
0.000641386
0.000641388
0.00064139
0.000641392
0.000641394
0.000641396
0.000641397
0.000641399
0.000641401
0.000641403
0.000641405
0.000641407
0.000641409
0.00064141
0.000641412
0.000641414
0.000641416
0.000641418
0.00064142
0.000641421
0.000641423
0.000641426
0.000641427
0.000641429
0.000641431
0.000641433
0.000641435
0.000641437
0.000641439
0.000641441
0.000641443
0.000641445
0.000641446
0.000641448
0.00064145
0.000641452
0.000641454
0.000641456
0.000641458
0.00064146
0.000641461
0.000641463
0.000641465
0.000641467
0.000641469
0.000641471
0.000641473
0.000641475
0.000641477
0.000641478
0.00064148
0.000641483
0.000641484
0.000641486
0.000641488
0.00064149
0.000641492
0.000641494
0.000641496
0.000641498
0.0006415
0.000641502
0.000641504
0.000641505
0.000641507
0.00064151
0.000641511
0.000641514
0.000641516
0.000641517
0.000641519
0.000641521
0.000641523
0.000641525
0.000641527
0.000641529
0.000641606
0.000641533
0.000641535
0.000641537
0.000641538
0.000641541
0.000641542
0.000641544
0.000641546
0.000641548
0.000641551
0.000641553
0.000641554
0.000641556
0.000641558
0.00064156
0.000641562
0.000641564
0.000641566
0.000641568
0.000641569
0.000641571
0.000641574
0.000641575
0.000641578
0.00064158
0.000641582
0.000641584
0.000641586
0.000641588
0.000641589
0.000641666
0.000641593
0.000641595
0.000641597
0.000641599
0.000641601
0.000641603
0.000641605
0.000641607
0.000641609
0.00064161
0.000641613
0.00064169
0.000641617
0.000641618
0.000641621
0.000641622
0.000641624
0.000641627
0.000641628
0.00064163
0.000641633
0.000641634
0.000641636
0.000641639
0.00064164
0.000641642
0.000641644
0.000641646
0.000641648
0.00064165
0.000641652
0.000641729
0.000641656
0.000641658
0.00064166
0.000641662
0.000641664
0.000641666
0.000641667
0.000641669
0.000641672
0.000641674
0.000641676
0.000641678
0.00064168
0.000641682
0.000641684
0.000641686
0.000641688
0.00064169
0.000641692
0.000641694
0.000641695
0.000641698
0.000641699
0.000641702
0.000641703
0.000641706
0.000641708
0.00064171
0.000641711
0.000641713
0.000641715
0.000641717
0.000641719
0.000641721
0.000641723
0.000641726
0.000641728
0.00064173
0.000641732
0.000641734
0.000641736
0.000641737
0.00064174
0.000641742
0.000641743
0.000641745
0.000641747
0.000641749
0.000641751
0.000641753
0.000641755
0.000641758
0.000641759
0.000641761
0.000641763
0.000641765
0.000641768
0.000641769
0.000641771
0.000641773
0.000641775
0.000641777
0.00064178
0.000641782
0.000641784
0.000641786
0.000641788
0.000641789
0.000641791
0.000641793
0.000641796
0.000641797
0.000641799
0.000641801
0.000641803
0.000641805
0.000641807
0.000641809
0.000641886
0.000641814
0.000641815
0.000641817
0.000641819
0.000641821
0.000641823
0.000641825
0.000641827
0.000641829
0.000641831
0.000641833
0.000641836
0.000641838
0.00064184
0.000641842
0.000641844
0.000641846
0.000641847
0.00064185
0.000641852
0.000641854
0.000641856
0.000641858
0.000641859
0.000641861
0.000641864
0.000641866
0.000641868
0.00064187
0.000641872
0.000641874
0.000641951
0.000641878
0.00064188
0.000641882
0.000641883
0.000641886
0.000641888
0.00064189
0.000641892
0.000641894
0.000641897
0.000641898
0.0006419
0.000641902
0.000641904
0.000641981
0.000641908
0.00064191
0.000641912
0.000641914
0.000641917
0.000641918
0.000641921
0.000641922
0.000642
0.000642001
0.000641928
0.00064193
0.000641932
0.000641935
0.000641936
0.000641939
0.000641941
0.000641943
0.000641945
0.000641946
0.000641949
0.000641951
0.000641953
0.00064203
0.000641957
0.000641958
0.000641961
0.000641963
0.000641965
0.000641967
0.000641969
0.000641971
0.000641973
0.000641975
0.000641977
0.000641979
0.000641981
0.000642058
0.000641985
0.000641987
0.000641989
0.000641991
0.000641993
0.000641996
0.000641998
0.000642
0.000642002
0.000642005
0.000642006
0.000642008
0.00064201
0.000642012
0.000642014
0.000642015
0.000642018
0.00064202
0.000642023
0.000642025
0.000642027
0.000642029
0.00064203
0.000642033
0.00064196
0.000641962
0.000641964
0.000641966
0.000641968
0.00064197
0.000641972
0.000641974
0.000641976
0.000642053
0.00064198
0.000641982
0.000641984
0.000642061
0.000641988
0.000642066
0.000641993
0.000641995
0.000641997
0.000641999
0.000642001
0.000642003
0.000642005
0.000642082
0.000642009
0.000642011
0.000642013
0.000642015
0.000642017
0.000642019
0.000642021
0.000642023
0.000642026
0.000642028
0.00064203
0.000642032
0.000642109
0.000642036
0.000642038
0.000642115
0.000642042
0.000642044
0.000642046
0.000642048
0.00064205
0.000642052
0.000642054
0.000642057
0.000642059
0.000642136
0.000642063
0.000642141
0.000642068
0.00064207
0.000642071
0.000642073
0.000642076
0.000642078
0.00064208
0.000642082
0.000642084
0.000642087
0.000642088
0.00064209
0.000642092
0.000642094
0.000642097
0.000642099
0.0006421
0.000642103
0.000642105
0.000642106
0.000642108
0.000642111
0.000642188
0.000642116
0.000642193
0.00064212
0.000642123
0.000642124
0.000642201
0.000642129
0.00064213
0.000642133
0.000642134
0.000642137
0.000642139
0.000642141
0.000642142
0.00064222
0.000642148
0.000642225
0.000642151
0.000642153
0.000642156
0.000642232
0.00064216
0.000642237
0.000642164
0.000642166
0.000642168
0.00064217
0.000642172
0.000642174
0.000642177
0.000642179
0.000642181
0.000642183
0.000642185
0.000642187
0.000642189
0.000642191
0.000642194
0.000642196
0.000642273
0.000642201
0.000642202
0.000642205
0.000642207
0.000642209
0.000642211
0.000642213
0.000642215
0.000642218
0.00064222
0.000642222
0.000642223
0.000642226
0.000642303
0.000642305
0.000642307
0.000642309
0.000642236
0.000642239
0.000642241
0.000642243
0.000642245
0.000642247
0.00064225
0.000642251
0.000642254
0.000642331
0.000642333
0.00064226
0.000642262
0.000642265
0.000642267
0.000642343
0.000642271
0.000642273
0.000642275
0.000642277
0.000642279
0.000642356
0.000642284
0.000642286
0.000642288
0.00064229
0.000642292
0.000642294
0.000642297
0.000642299
0.000642301
0.000642303
0.000642306
0.000642383
0.00064231
0.000642312
0.000642314
0.000642316
0.000642318
0.000642396
0.000642323
0.000642325
0.000642328
0.00064233
0.000642332
0.000642334
0.000642335
0.000642338
0.000642415
0.000642342
0.000642345
0.000642346
0.000642349
0.000642351
0.000642353
0.000642356
0.000642358
0.00064236
0.000642362
0.000642364
0.000642367
0.000642369
0.000642371
0.000642373
0.000642375
0.000642377
0.000642379
0.000642456
0.000642383
0.000642386
0.000642463
0.00064239
0.000642467
0.000642395
0.000642397
0.000642399
0.000642476
)
;

boundaryField
{
    fixedWall
    {
        type            calculated;
        value           uniform 0;
    }
    outlet
    {
        type            calculated;
        value           uniform 0;
    }
    defaultFaces
    {
        type            empty;
    }
}


// ************************************************************************* //
