/*--------------------------------*- C++ -*----------------------------------*\
| =========                 |                                                 |
| \\      /  F ield         | OpenFOAM: The Open Source CFD Toolbox           |
|  \\    /   O peration     | Version:  2406                                  |
|   \\  /    A nd           | Website:  www.openfoam.com                      |
|    \\/     M anipulation  |                                                 |
\*---------------------------------------------------------------------------*/
FoamFile
{
    version     2.0;
    format      ascii;
    arch        "LSB;label=32;scalar=64";
    class       volScalarField;
    location    "11.2";
    object      O2;
}
// * * * * * * * * * * * * * * * * * * * * * * * * * * * * * * * * * * * * * //

dimensions      [0 0 0 0 0 0 0];

internalField   nonuniform List<scalar> 
1000
(
1.1053e-06
1.10356e-06
1.10038e-06
1.09599e-06
1.09057e-06
1.08424e-06
1.07711e-06
1.06927e-06
1.0608e-06
1.05177e-06
1.04222e-06
1.03221e-06
1.02178e-06
1.01097e-06
9.99823e-07
9.88359e-07
9.76613e-07
9.64613e-07
9.52383e-07
9.39947e-07
9.27326e-07
9.14543e-07
9.01615e-07
8.88562e-07
8.75402e-07
8.6215e-07
8.48824e-07
8.35438e-07
8.22008e-07
8.08549e-07
7.95074e-07
7.81597e-07
7.68131e-07
7.5469e-07
7.41286e-07
7.27931e-07
7.14638e-07
7.01418e-07
6.88282e-07
6.75242e-07
6.62307e-07
6.49489e-07
6.36797e-07
6.2424e-07
6.11828e-07
5.99569e-07
5.87471e-07
5.75542e-07
5.63789e-07
5.52218e-07
5.40836e-07
5.29648e-07
5.18659e-07
5.07874e-07
4.97297e-07
4.86931e-07
4.7678e-07
4.66846e-07
4.57131e-07
4.47636e-07
4.38363e-07
4.29313e-07
4.20485e-07
4.11879e-07
4.03495e-07
3.95333e-07
3.8739e-07
3.79665e-07
3.72157e-07
3.64862e-07
3.5778e-07
3.50906e-07
3.44239e-07
3.37776e-07
3.31512e-07
3.25445e-07
3.19571e-07
3.13886e-07
3.08388e-07
3.03071e-07
2.97933e-07
2.92968e-07
2.88174e-07
2.83546e-07
2.79079e-07
2.74771e-07
2.70617e-07
2.66613e-07
2.62754e-07
2.59037e-07
2.55459e-07
2.52014e-07
2.48699e-07
2.4551e-07
2.42444e-07
2.39496e-07
2.36663e-07
2.33942e-07
2.31329e-07
2.2882e-07
2.26411e-07
2.24101e-07
2.21885e-07
2.1976e-07
2.17723e-07
2.15772e-07
2.13902e-07
2.12112e-07
2.10398e-07
2.08758e-07
2.07189e-07
2.05689e-07
2.04255e-07
2.02884e-07
2.01575e-07
2.00324e-07
1.99131e-07
1.97992e-07
1.96906e-07
1.9587e-07
1.94883e-07
1.93943e-07
1.93048e-07
1.92196e-07
1.91386e-07
1.90615e-07
1.89883e-07
1.89187e-07
1.88527e-07
1.87901e-07
1.87307e-07
1.86745e-07
1.86212e-07
1.85709e-07
1.85232e-07
1.84782e-07
1.84358e-07
1.83958e-07
1.83581e-07
1.83226e-07
1.82892e-07
1.82579e-07
1.82286e-07
1.82011e-07
1.81755e-07
1.81515e-07
1.81292e-07
1.81085e-07
1.80892e-07
1.80714e-07
1.8055e-07
1.80399e-07
1.8026e-07
1.80134e-07
1.80019e-07
1.79915e-07
1.79821e-07
1.79738e-07
1.79664e-07
1.796e-07
1.79544e-07
1.79496e-07
1.79456e-07
1.79424e-07
1.79399e-07
1.79381e-07
1.7937e-07
1.79365e-07
1.79366e-07
1.79373e-07
1.79385e-07
1.79403e-07
1.79425e-07
1.79452e-07
1.79484e-07
1.7952e-07
1.7956e-07
1.79604e-07
1.79652e-07
1.79703e-07
1.79758e-07
1.79815e-07
1.79876e-07
1.7994e-07
1.80007e-07
1.80076e-07
1.80148e-07
1.80223e-07
1.80299e-07
1.80378e-07
1.80459e-07
1.80542e-07
1.80627e-07
1.80713e-07
1.80802e-07
1.80892e-07
1.80983e-07
1.81076e-07
1.8117e-07
1.81266e-07
1.81363e-07
1.81461e-07
1.8156e-07
1.8166e-07
1.81762e-07
1.81864e-07
1.81968e-07
1.82072e-07
1.82177e-07
1.82283e-07
1.8239e-07
1.82498e-07
1.82606e-07
1.82715e-07
1.82824e-07
1.82935e-07
1.83045e-07
1.83157e-07
1.83269e-07
1.83381e-07
1.83494e-07
1.83608e-07
1.83721e-07
1.83835e-07
1.8395e-07
1.84065e-07
1.84181e-07
1.84297e-07
1.84413e-07
1.8453e-07
1.84646e-07
1.84764e-07
1.84881e-07
1.84999e-07
1.85117e-07
1.85235e-07
1.85354e-07
1.85473e-07
1.85592e-07
1.85711e-07
1.85831e-07
1.85951e-07
1.86071e-07
1.86191e-07
1.86311e-07
1.86432e-07
1.86553e-07
1.86674e-07
1.86795e-07
1.86916e-07
1.87038e-07
1.8716e-07
1.87281e-07
1.87404e-07
1.87526e-07
1.87648e-07
1.87771e-07
1.87893e-07
1.88015e-07
1.88138e-07
1.88262e-07
1.88385e-07
1.88509e-07
1.88632e-07
1.88756e-07
1.8888e-07
1.89004e-07
1.89128e-07
1.89252e-07
1.89377e-07
1.89501e-07
1.89626e-07
1.89751e-07
1.89876e-07
1.90001e-07
1.90126e-07
1.90251e-07
1.90377e-07
1.90502e-07
1.90628e-07
1.90754e-07
1.9088e-07
1.91006e-07
1.91132e-07
1.91259e-07
1.91385e-07
1.91512e-07
1.91639e-07
1.91766e-07
1.91893e-07
1.9202e-07
1.92147e-07
1.92275e-07
1.92402e-07
1.9253e-07
1.92658e-07
1.92786e-07
1.92914e-07
1.93042e-07
1.9317e-07
1.93298e-07
1.93426e-07
1.93555e-07
1.93684e-07
1.93813e-07
1.93942e-07
1.94072e-07
1.94201e-07
1.94331e-07
1.94461e-07
1.9459e-07
1.94721e-07
1.94851e-07
1.94981e-07
1.95112e-07
1.95242e-07
1.95373e-07
1.95504e-07
1.95635e-07
1.95766e-07
1.95898e-07
1.96029e-07
1.96161e-07
1.96293e-07
1.96425e-07
1.96557e-07
1.96689e-07
1.96822e-07
1.96955e-07
1.97087e-07
1.9722e-07
1.97353e-07
1.97487e-07
1.9762e-07
1.97754e-07
1.97888e-07
1.98022e-07
1.98156e-07
1.9829e-07
1.98424e-07
1.98559e-07
1.98694e-07
1.98829e-07
1.98964e-07
1.991e-07
1.99235e-07
1.99371e-07
1.99507e-07
1.99643e-07
1.99779e-07
1.99916e-07
2.00052e-07
2.00189e-07
2.00326e-07
2.00463e-07
2.00601e-07
2.00738e-07
2.00876e-07
2.01014e-07
2.01152e-07
2.01291e-07
2.01429e-07
2.01568e-07
2.01707e-07
2.01846e-07
2.01985e-07
2.02125e-07
2.02265e-07
2.02404e-07
2.02545e-07
2.02685e-07
2.02825e-07
2.02966e-07
2.03107e-07
2.03248e-07
2.03389e-07
2.03531e-07
2.03673e-07
2.03815e-07
2.03957e-07
2.04099e-07
2.04242e-07
2.04385e-07
2.04528e-07
2.04671e-07
2.04814e-07
2.04958e-07
2.05102e-07
2.05246e-07
2.0539e-07
2.05534e-07
2.05679e-07
2.05824e-07
2.05969e-07
2.06114e-07
2.0626e-07
2.06405e-07
2.06551e-07
2.06697e-07
2.06844e-07
2.0699e-07
2.07137e-07
2.07284e-07
2.07431e-07
2.07579e-07
2.07727e-07
2.07874e-07
2.08022e-07
2.08171e-07
2.08319e-07
2.08468e-07
2.08617e-07
2.08766e-07
2.08916e-07
2.09065e-07
2.09215e-07
2.09365e-07
2.09515e-07
2.09666e-07
2.09816e-07
2.09967e-07
2.10118e-07
2.1027e-07
2.10421e-07
2.10573e-07
2.10725e-07
2.10877e-07
2.1103e-07
2.11182e-07
2.11335e-07
2.11488e-07
2.11642e-07
2.11795e-07
2.11949e-07
2.12103e-07
2.12257e-07
2.12412e-07
2.12566e-07
2.12721e-07
2.12876e-07
2.13032e-07
2.13187e-07
2.13343e-07
2.13499e-07
2.13655e-07
2.13812e-07
2.13969e-07
2.14126e-07
2.14283e-07
2.1444e-07
2.14598e-07
2.14756e-07
2.14914e-07
2.15072e-07
2.1523e-07
2.15389e-07
2.15548e-07
2.15707e-07
2.15867e-07
2.16027e-07
2.16187e-07
2.16347e-07
2.16507e-07
2.16668e-07
2.16829e-07
2.1699e-07
2.17151e-07
2.17313e-07
2.17475e-07
2.17637e-07
2.17799e-07
2.17962e-07
2.18124e-07
2.18288e-07
2.18451e-07
2.18614e-07
2.18778e-07
2.18942e-07
2.19107e-07
2.19271e-07
2.19436e-07
2.19601e-07
2.19766e-07
2.19932e-07
2.20097e-07
2.20263e-07
2.2043e-07
2.20596e-07
2.20763e-07
2.2093e-07
2.21097e-07
2.21265e-07
2.21433e-07
2.21601e-07
2.21769e-07
2.21938e-07
2.22107e-07
2.22276e-07
2.22445e-07
2.22615e-07
2.22785e-07
2.22955e-07
2.23125e-07
2.23296e-07
2.23467e-07
2.23638e-07
2.23809e-07
2.23981e-07
2.24153e-07
2.24325e-07
2.24498e-07
2.24671e-07
2.24844e-07
2.25017e-07
2.25191e-07
2.25365e-07
2.25539e-07
2.25713e-07
2.25888e-07
2.26063e-07
2.26238e-07
2.26413e-07
2.26589e-07
2.26765e-07
2.26942e-07
2.27118e-07
2.27295e-07
2.27472e-07
2.2765e-07
2.27827e-07
2.28005e-07
2.28183e-07
2.28362e-07
2.28541e-07
2.2872e-07
2.28899e-07
2.29079e-07
2.29259e-07
2.29439e-07
2.29619e-07
2.298e-07
2.29981e-07
2.30163e-07
2.30344e-07
2.30526e-07
2.30708e-07
2.30891e-07
2.31073e-07
2.31256e-07
2.3144e-07
2.31623e-07
2.31807e-07
2.31991e-07
2.32176e-07
2.32361e-07
2.32546e-07
2.32731e-07
2.32917e-07
2.33103e-07
2.33289e-07
2.33475e-07
2.33662e-07
2.33849e-07
2.34036e-07
2.34224e-07
2.34412e-07
2.346e-07
2.34789e-07
2.34978e-07
2.35167e-07
2.35356e-07
2.35546e-07
2.35736e-07
2.35927e-07
2.36117e-07
2.36308e-07
2.365e-07
2.36691e-07
2.36883e-07
2.37075e-07
2.37268e-07
2.37461e-07
2.37654e-07
2.37847e-07
2.38041e-07
2.38235e-07
2.3843e-07
2.38624e-07
2.38819e-07
2.39015e-07
2.3921e-07
2.39406e-07
2.39603e-07
2.39799e-07
2.39996e-07
2.40194e-07
2.40391e-07
2.40589e-07
2.40787e-07
2.40986e-07
2.41185e-07
2.41384e-07
2.41584e-07
2.41784e-07
2.41984e-07
2.42185e-07
2.42386e-07
2.42587e-07
2.42789e-07
2.42991e-07
2.43193e-07
2.43396e-07
2.43599e-07
2.43802e-07
2.44006e-07
2.4421e-07
2.44414e-07
2.44619e-07
2.44824e-07
2.4503e-07
2.45235e-07
2.45442e-07
2.45647e-07
2.45853e-07
2.4606e-07
2.46268e-07
2.46476e-07
2.46684e-07
2.46893e-07
2.47102e-07
2.47311e-07
2.47521e-07
2.47731e-07
2.47942e-07
2.48153e-07
2.48364e-07
2.48575e-07
2.48787e-07
2.49e-07
2.49212e-07
2.49425e-07
2.49639e-07
2.49853e-07
2.50067e-07
2.50281e-07
2.50496e-07
2.50712e-07
2.50927e-07
2.51143e-07
2.5136e-07
2.51577e-07
2.51794e-07
2.52011e-07
2.52229e-07
2.52447e-07
2.52666e-07
2.52885e-07
2.53105e-07
2.53324e-07
2.53545e-07
2.53765e-07
2.53986e-07
2.54208e-07
2.54429e-07
2.54651e-07
2.54874e-07
2.55097e-07
2.5532e-07
2.55544e-07
2.55768e-07
2.55992e-07
2.56217e-07
2.56442e-07
2.56667e-07
2.56892e-07
2.57118e-07
2.57345e-07
2.57572e-07
2.57799e-07
2.58027e-07
2.58255e-07
2.58484e-07
2.58713e-07
2.58942e-07
2.59172e-07
2.59402e-07
2.59633e-07
2.59863e-07
2.60095e-07
2.60327e-07
2.60559e-07
2.60791e-07
2.61024e-07
2.61257e-07
2.61491e-07
2.61725e-07
2.6196e-07
2.62195e-07
2.6243e-07
2.62666e-07
2.62902e-07
2.63139e-07
2.63376e-07
2.63613e-07
2.63851e-07
2.64089e-07
2.64328e-07
2.64567e-07
2.64806e-07
2.65046e-07
2.65286e-07
2.65527e-07
2.65768e-07
2.6601e-07
2.66252e-07
2.66494e-07
2.66737e-07
2.66981e-07
2.67225e-07
2.67469e-07
2.67713e-07
2.67959e-07
2.68204e-07
2.6845e-07
2.68697e-07
2.68944e-07
2.69191e-07
2.69439e-07
2.69687e-07
2.69936e-07
2.70186e-07
2.70435e-07
2.70686e-07
2.70936e-07
2.71188e-07
2.71439e-07
2.71692e-07
2.71944e-07
2.72198e-07
2.72451e-07
2.72706e-07
2.7296e-07
2.73215e-07
2.73469e-07
2.73725e-07
2.73981e-07
2.74238e-07
2.74496e-07
2.74754e-07
2.75012e-07
2.75271e-07
2.75531e-07
2.75791e-07
2.76052e-07
2.76313e-07
2.76575e-07
2.76837e-07
2.771e-07
2.77363e-07
2.77627e-07
2.77891e-07
2.78156e-07
2.78421e-07
2.78687e-07
2.78954e-07
2.79221e-07
2.79489e-07
2.79757e-07
2.80026e-07
2.80295e-07
2.80565e-07
2.80835e-07
2.81106e-07
2.81377e-07
2.81649e-07
2.81922e-07
2.82195e-07
2.82469e-07
2.82743e-07
2.83018e-07
2.83294e-07
2.8357e-07
2.83846e-07
2.84124e-07
2.84402e-07
2.8468e-07
2.84959e-07
2.85239e-07
2.85519e-07
2.858e-07
2.86082e-07
2.86364e-07
2.86647e-07
2.86931e-07
2.87215e-07
2.875e-07
2.87786e-07
2.88073e-07
2.8836e-07
2.88648e-07
2.88937e-07
2.89227e-07
2.89518e-07
2.89809e-07
2.90102e-07
2.90395e-07
2.9069e-07
2.90985e-07
2.91282e-07
2.9158e-07
2.91879e-07
2.92179e-07
2.9248e-07
2.92783e-07
2.93088e-07
2.93394e-07
2.93701e-07
2.9401e-07
2.94322e-07
2.94635e-07
2.9495e-07
2.95267e-07
2.95586e-07
2.95908e-07
2.96233e-07
2.9656e-07
2.9689e-07
2.97223e-07
2.9756e-07
2.979e-07
2.98245e-07
2.98593e-07
2.98945e-07
2.99302e-07
2.99664e-07
3.00032e-07
3.00405e-07
3.00784e-07
3.0117e-07
3.01562e-07
3.01962e-07
3.0237e-07
3.02786e-07
3.03211e-07
3.03646e-07
3.04092e-07
3.04548e-07
3.05016e-07
3.05497e-07
3.05991e-07
3.065e-07
3.07024e-07
3.07564e-07
3.08122e-07
3.08699e-07
3.09295e-07
3.09913e-07
3.10553e-07
3.11217e-07
3.11907e-07
3.12624e-07
3.1337e-07
3.14148e-07
3.14958e-07
3.15803e-07
3.16686e-07
3.17608e-07
3.18572e-07
3.19581e-07
3.20637e-07
3.21744e-07
3.22904e-07
3.2412e-07
3.25397e-07
3.26737e-07
3.28144e-07
3.29623e-07
3.31177e-07
3.3281e-07
3.34528e-07
3.36336e-07
3.38237e-07
3.40237e-07
3.42343e-07
3.44559e-07
3.46892e-07
3.49347e-07
3.51933e-07
3.54654e-07
3.57519e-07
3.60534e-07
3.63708e-07
3.67049e-07
3.70564e-07
3.74263e-07
3.78154e-07
3.82247e-07
3.86551e-07
3.91076e-07
3.95832e-07
4.0083e-07
4.06081e-07
4.11595e-07
4.17383e-07
4.23459e-07
4.29832e-07
4.36517e-07
4.43524e-07
4.50866e-07
4.58556e-07
4.66607e-07
4.75032e-07
4.83843e-07
4.93054e-07
5.02676e-07
5.12724e-07
5.23209e-07
5.34144e-07
5.4554e-07
5.5741e-07
5.69762e-07
5.82609e-07
5.95958e-07
6.0982e-07
6.242e-07
6.39104e-07
6.54539e-07
6.70506e-07
6.87006e-07
7.0404e-07
7.21604e-07
7.39692e-07
7.58298e-07
7.77408e-07
7.9701e-07
8.17086e-07
8.37614e-07
8.5857e-07
8.79923e-07
9.0164e-07
9.23682e-07
9.46005e-07
9.68562e-07
9.91298e-07
1.01415e-06
1.03706e-06
1.05996e-06
1.08276e-06
1.10539e-06
1.12775e-06
1.14977e-06
1.17133e-06
1.19234e-06
1.21269e-06
1.23226e-06
1.25095e-06
1.26864e-06
1.28521e-06
1.30053e-06
1.31448e-06
1.32695e-06
1.3378e-06
1.34693e-06
1.3542e-06
1.35952e-06
1.36274e-06
1.36378e-06
1.36256e-06
1.35896e-06
1.35289e-06
1.34427e-06
1.33303e-06
1.31911e-06
1.30243e-06
1.28296e-06
1.26065e-06
1.23548e-06
1.20742e-06
1.17647e-06
1.14262e-06
1.1059e-06
1.06633e-06
1.02395e-06
9.78832e-07
9.31038e-07
8.80667e-07
8.27832e-07
7.72671e-07
7.15349e-07
6.56056e-07
5.95019e-07
5.32501e-07
4.68807e-07
4.04289e-07
3.39358e-07
2.74481e-07
2.10198e-07
1.47124e-07
8.59534e-08
2.74664e-08
)
;

boundaryField
{
    fixedWall
    {
        type            zeroGradient;
    }
    outlet
    {
        type            inletOutlet;
        inletValue      uniform 0;
        value           uniform 0;
    }
    defaultFaces
    {
        type            empty;
    }
}


// ************************************************************************* //
