/*--------------------------------*- C++ -*----------------------------------*\
| =========                 |                                                 |
| \\      /  F ield         | OpenFOAM: The Open Source CFD Toolbox           |
|  \\    /   O peration     | Version:  2406                                  |
|   \\  /    A nd           | Website:  www.openfoam.com                      |
|    \\/     M anipulation  |                                                 |
\*---------------------------------------------------------------------------*/
FoamFile
{
    version     2.0;
    format      ascii;
    arch        "LSB;label=32;scalar=64";
    class       volScalarField;
    location    "11.2";
    object      Qdot;
}
// * * * * * * * * * * * * * * * * * * * * * * * * * * * * * * * * * * * * * //

dimensions      [1 -1 -3 0 0 0 0];

internalField   nonuniform List<scalar> 
1000
(
4.984e-14
-2.26379e-17
-2.85964e-16
-2.32768e-15
7.60884e-09
2.90634e-08
1.07584e-07
3.4004e-07
9.4749e-07
2.32775e-06
5.22005e-06
1.08059e-05
2.08856e-05
3.80329e-05
6.57446e-05
0.000108554
0.000172114
0.00026321
0.000389739
0.000560577
0.000785437
0.00107465
0.0014389
0.00188891
0.00243517
0.00308758
0.00385518
0.00474585
0.00576601
0.0069205
0.00821232
0.00964257
0.0112104
0.0129129
0.0147452
0.0167007
0.018771
0.020946
0.0232144
0.0255636
0.0279802
0.0304501
0.0329586
0.0354908
0.0380321
0.0405678
0.0430839
0.0455667
0.0480036
0.0503826
0.0526928
0.0549245
0.0570689
0.0591185
0.061067
0.0629092
0.064641
0.0662596
0.067763
0.0691504
0.0704218
0.0715781
0.072621
0.0735529
0.0743766
0.0750958
0.0757142
0.0762363
0.0766665
0.0770098
0.077271
0.0774553
0.0775678
0.0776137
0.0775979
0.0775256
0.0774016
0.0772307
0.0770176
0.0767666
0.0764821
0.0761679
0.0758281
0.0754661
0.0750854
0.0746892
0.0742805
0.0738619
0.0734361
0.0730053
0.0725718
0.0721375
0.0717042
0.0712734
0.0708467
0.0704254
0.0700105
0.0696032
0.0692043
0.0688147
0.0684348
0.0680655
0.067707
0.0673599
0.0670243
0.0667007
0.066389
0.0660895
0.0658022
0.0655271
0.0652642
0.0650134
0.0647746
0.0645477
0.0643325
0.0641288
0.0639364
0.063755
0.0635845
0.0634246
0.063275
0.0631354
0.0630056
0.0628853
0.0627741
0.0626719
0.0625782
0.0624929
0.0624156
0.0623461
0.062284
0.0622291
0.0621811
0.0621397
0.0621047
0.0620758
0.0620527
0.0620353
0.0620232
0.0620163
0.0620143
0.0620169
0.062024
0.0620354
0.0620508
0.0620701
0.0620931
0.0621196
0.0621495
0.0621825
0.0622185
0.0622573
0.0622989
0.062343
0.0623896
0.0624385
0.0624895
0.0625426
0.0625976
0.0626546
0.0627133
0.0627736
0.0628355
0.0628989
0.0629634
0.0630293
0.0630963
0.0631645
0.0632338
0.0633044
0.063376
0.0634482
0.0635213
0.0635955
0.0636705
0.0637458
0.0638221
0.0638991
0.0639766
0.0640547
0.0641333
0.0642124
0.064292
0.064372
0.0644524
0.0645332
0.0646144
0.064696
0.0647778
0.06486
0.0649425
0.0650252
0.0651083
0.0651916
0.0652751
0.0653588
0.0654428
0.065527
0.0656114
0.065696
0.0657807
0.0658656
0.0659507
0.066036
0.0661215
0.0662071
0.0662929
0.0663788
0.0664649
0.0665511
0.0666375
0.066724
0.0668106
0.0668974
0.0669843
0.0670713
0.0671585
0.0672458
0.0673333
0.0674209
0.0675085
0.0675964
0.0676843
0.0677724
0.0678606
0.0679489
0.0680374
0.0681259
0.0682147
0.0683035
0.0683925
0.0684816
0.0685709
0.0686603
0.0687498
0.0688395
0.0689292
0.0690192
0.0691092
0.0691994
0.0692897
0.0693802
0.0694708
0.0695616
0.0696525
0.0697435
0.0698347
0.069926
0.0700174
0.070109
0.0702008
0.0702927
0.0703847
0.0704769
0.0705692
0.0706617
0.0707542
0.0708465
0.0709395
0.0710327
0.071126
0.0712194
0.071313
0.0714068
0.0715007
0.0715947
0.0716889
0.0717832
0.0718778
0.0719724
0.0720672
0.0721622
0.0722574
0.0723527
0.0724481
0.0725438
0.0726396
0.0727355
0.0728316
0.0729279
0.0730244
0.073121
0.0732178
0.0733147
0.0734118
0.0735091
0.0736066
0.0737043
0.0738021
0.0739001
0.0739982
0.0740966
0.0741951
0.0742938
0.0743926
0.0744917
0.0745909
0.0746903
0.0747899
0.0748893
0.0749887
0.0750889
0.0751892
0.0752897
0.0753904
0.0754912
0.0755923
0.0756935
0.075795
0.0758966
0.0759984
0.0761004
0.0762025
0.0763049
0.0764075
0.0765102
0.0766132
0.0767163
0.0768197
0.0769232
0.077027
0.0771309
0.077235
0.0773394
0.0774439
0.0775486
0.0776536
0.0777587
0.0778641
0.0779696
0.0780754
0.0781813
0.0782875
0.0783939
0.0785005
0.0786073
0.0787143
0.0788215
0.078929
0.0790366
0.0791445
0.0792526
0.0793609
0.0794694
0.0795781
0.0796871
0.0797963
0.0799057
0.0800153
0.0801251
0.0802352
0.0803455
0.080456
0.0805668
0.0806778
0.080789
0.0809004
0.0810121
0.081124
0.0812361
0.0813485
0.0814611
0.0815739
0.081687
0.0818003
0.0819138
0.0820276
0.0821416
0.0822559
0.0823704
0.0824852
0.0826001
0.0827154
0.0828308
0.0829466
0.0830625
0.0831787
0.0832952
0.0834119
0.0835289
0.0836461
0.0837635
0.0838812
0.0839992
0.0841174
0.0842358
0.0843546
0.0844735
0.0845928
0.0847122
0.084832
0.084952
0.0850722
0.0851927
0.0853135
0.0854345
0.0855558
0.0856773
0.0857991
0.0859212
0.0860435
0.0861661
0.086289
0.0864121
0.0865355
0.0866592
0.0867831
0.0869073
0.0870317
0.0871564
0.0872814
0.0874067
0.0875322
0.087658
0.0877841
0.0879104
0.088037
0.0881639
0.0882911
0.0884185
0.0885462
0.0886742
0.0888025
0.088931
0.0890599
0.0891889
0.0893183
0.089448
0.0895779
0.0897081
0.0898386
0.0899694
0.0901005
0.0902318
0.0903635
0.0904954
0.0906276
0.0907601
0.0908929
0.091026
0.0911593
0.091293
0.0914269
0.0915612
0.0916957
0.0918305
0.0919656
0.092101
0.0922368
0.0923728
0.0925091
0.0926457
0.0927826
0.0929198
0.0930573
0.0931951
0.0933333
0.0934717
0.0936104
0.0937494
0.0938888
0.0940284
0.0941684
0.0943087
0.0944493
0.0945902
0.0947314
0.0948729
0.0950148
0.0951569
0.0952994
0.0954422
0.0955853
0.0957288
0.0958726
0.0960167
0.0961611
0.0963058
0.0964509
0.0965963
0.096742
0.0968881
0.0970345
0.0971812
0.0973282
0.0974756
0.0976234
0.0977714
0.0979198
0.0980686
0.0982176
0.0983671
0.0985168
0.0986669
0.0988174
0.0989682
0.0991193
0.0992708
0.0994227
0.0995748
0.0997274
0.0998803
0.100034
0.100187
0.100341
0.100495
0.10065
0.100805
0.10096
0.101116
0.101272
0.101429
0.101586
0.101743
0.1019
0.102058
0.102217
0.102375
0.102534
0.102694
0.102854
0.103014
0.103174
0.103335
0.103496
0.103658
0.10382
0.103983
0.104145
0.104309
0.104472
0.104636
0.1048
0.104965
0.10513
0.105296
0.105462
0.105628
0.105795
0.105962
0.106129
0.106297
0.106465
0.106634
0.106803
0.106972
0.107142
0.107312
0.107483
0.107654
0.107826
0.107998
0.10817
0.108343
0.108516
0.108689
0.108863
0.109037
0.109212
0.109387
0.109563
0.109739
0.109915
0.110092
0.11027
0.110447
0.110625
0.110804
0.110983
0.111162
0.111342
0.111522
0.111703
0.111884
0.112066
0.112248
0.11243
0.112613
0.112797
0.112981
0.113165
0.113349
0.113535
0.11372
0.113906
0.114093
0.11428
0.114467
0.114655
0.114843
0.115032
0.115222
0.115411
0.115602
0.115792
0.115983
0.116175
0.116367
0.11656
0.116753
0.116946
0.11714
0.117335
0.11753
0.117725
0.117921
0.118118
0.118315
0.118512
0.11871
0.118909
0.119108
0.119307
0.119507
0.119708
0.119909
0.12011
0.120312
0.120515
0.120718
0.120922
0.121126
0.121329
0.121533
0.121739
0.121945
0.122152
0.122359
0.122567
0.122776
0.122984
0.123194
0.123404
0.123614
0.123825
0.124037
0.124249
0.124462
0.124675
0.124889
0.125103
0.125318
0.125534
0.12575
0.125966
0.126183
0.126401
0.126619
0.126838
0.127058
0.127278
0.127498
0.127719
0.127941
0.128163
0.128386
0.12861
0.128834
0.129058
0.129284
0.129509
0.129736
0.129963
0.13019
0.130419
0.130647
0.130877
0.131107
0.131337
0.131569
0.1318
0.132033
0.132266
0.132499
0.132732
0.132967
0.133202
0.133438
0.133674
0.133912
0.13415
0.134388
0.134627
0.134867
0.135107
0.135348
0.13559
0.135832
0.136075
0.136319
0.136563
0.136808
0.137053
0.137299
0.137546
0.137793
0.138042
0.13829
0.13854
0.13879
0.13904
0.139292
0.139544
0.139797
0.14005
0.140304
0.140559
0.140814
0.14107
0.141327
0.141585
0.141843
0.142102
0.142361
0.142622
0.142883
0.143145
0.143407
0.14367
0.143934
0.144199
0.144464
0.14473
0.144997
0.145264
0.145533
0.145802
0.146072
0.146342
0.146614
0.146886
0.147158
0.147432
0.147707
0.147982
0.148258
0.148534
0.148812
0.14909
0.14937
0.149649
0.14993
0.150212
0.150493
0.150775
0.151058
0.151343
0.151628
0.151915
0.152202
0.15249
0.152778
0.153068
0.153358
0.15365
0.153942
0.154235
0.154529
0.154823
0.155119
0.155416
0.155713
0.156011
0.15631
0.15661
0.156911
0.157213
0.157515
0.157819
0.158123
0.158428
0.158734
0.159041
0.159349
0.159658
0.159967
0.160278
0.16059
0.160902
0.161215
0.161529
0.161844
0.16216
0.162477
0.162795
0.163114
0.163433
0.163754
0.164075
0.164397
0.164721
0.165045
0.16537
0.165696
0.166023
0.16635
0.166679
0.167009
0.167339
0.167671
0.168003
0.168336
0.168671
0.169006
0.169342
0.169679
0.170017
0.170356
0.170695
0.171036
0.171378
0.17172
0.172064
0.172409
0.172754
0.173101
0.173449
0.173797
0.174147
0.174498
0.17485
0.175203
0.175557
0.175912
0.176269
0.176627
0.176986
0.177347
0.177709
0.178072
0.178437
0.178804
0.179173
0.179543
0.179916
0.18029
0.180667
0.181046
0.181428
0.181813
0.1822
0.182591
0.182985
0.183382
0.183784
0.18419
0.1846
0.185016
0.185437
0.185863
0.186296
0.186736
0.187183
0.187638
0.188101
0.188574
0.189057
0.18955
0.190056
0.190574
0.191105
0.191651
0.192213
0.192792
0.19339
0.194007
0.194645
0.195307
0.195992
0.196704
0.197444
0.198214
0.199017
0.199854
0.200728
0.201641
0.202596
0.203596
0.204644
0.205743
0.206895
0.208105
0.209375
0.21071
0.212113
0.213588
0.215139
0.21677
0.218486
0.220291
0.22219
0.224187
0.226286
0.228494
0.230814
0.233251
0.235811
0.238498
0.241316
0.244271
0.247367
0.250608
0.253998
0.257541
0.26124
0.265097
0.269114
0.273294
0.277636
0.28214
0.286805
0.291627
0.296603
0.301726
0.30699
0.312385
0.3179
0.32352
0.32923
0.335009
0.340837
0.346688
0.352533
0.35834
0.364074
0.369694
0.375158
0.380417
0.385421
0.390115
0.394439
0.398332
0.401729
0.404562
0.406761
0.408257
0.408979
0.408855
0.40782
0.405808
0.40276
0.398622
0.393349
0.386906
0.37927
0.37043
0.360389
0.349169
0.336809
0.323363
0.308909
0.293539
0.277369
0.260526
0.243159
0.225427
0.207499
0.189553
0.171771
0.154331
0.137408
0.121164
0.105748
0.0912885
0.0778925
0.0656511
0.054703
0.0448528
0.0362206
0.0287755
0.0224626
0.0172059
0.0129132
0.00948012
0.00679555
0.00474661
0.00322336
0.00212274
0.00135181
0.000829806
0.000489233
0.000275911
0.000148162
7.53597e-05
3.60896e-05
1.61629e-05
6.71602e-06
2.56648e-06
8.92537e-07
2.78947e-07
7.75309e-08
1.86791e-08
3.63283e-09
8.44434e-10
-1.06672e-10
-1.97033e-17
-1.48124e-18
6.55526e-11
0
0
)
;

boundaryField
{
    fixedWall
    {
        type            calculated;
        value           uniform 0;
    }
    outlet
    {
        type            calculated;
        value           uniform 0;
    }
    defaultFaces
    {
        type            empty;
    }
}


// ************************************************************************* //
