/*--------------------------------*- C++ -*----------------------------------*\
| =========                 |                                                 |
| \\      /  F ield         | OpenFOAM: The Open Source CFD Toolbox           |
|  \\    /   O peration     | Version:  2406                                  |
|   \\  /    A nd           | Website:  www.openfoam.com                      |
|    \\/     M anipulation  |                                                 |
\*---------------------------------------------------------------------------*/
FoamFile
{
    version     2.0;
    format      ascii;
    arch        "LSB;label=32;scalar=64";
    class       volScalarField;
    location    "3.5";
    object      H2O;
}
// * * * * * * * * * * * * * * * * * * * * * * * * * * * * * * * * * * * * * //

dimensions      [0 0 0 0 0 0 0];

internalField   nonuniform List<scalar> 
1000
(
0.0580663
0.0580663
0.0580663
0.0580663
0.0580663
0.0580663
0.0580663
0.0580663
0.0580663
0.0580663
0.0580664
0.0580664
0.0580664
0.0580664
0.0580664
0.0580664
0.0580664
0.0580664
0.0580664
0.0580665
0.0580665
0.0580665
0.0580665
0.0580665
0.0580665
0.0580665
0.0580665
0.0580666
0.0580666
0.0580666
0.0580666
0.0580666
0.0580666
0.0580666
0.0580666
0.0580667
0.0580667
0.0580667
0.0580667
0.0580667
0.0580667
0.0580667
0.0580667
0.0580667
0.0580667
0.0580667
0.0580668
0.0580668
0.0580668
0.0580668
0.0580668
0.0580668
0.0580668
0.0580668
0.0580668
0.0580668
0.0580668
0.0580668
0.0580668
0.0580668
0.0580668
0.0580668
0.0580668
0.0580668
0.0580668
0.0580668
0.0580668
0.0580668
0.0580668
0.0580668
0.0580668
0.0580668
0.0580668
0.0580668
0.0580668
0.0580668
0.0580668
0.0580668
0.0580668
0.0580668
0.0580668
0.0580668
0.0580668
0.0580668
0.0580668
0.0580668
0.0580668
0.0580668
0.0580668
0.0580668
0.0580668
0.0580668
0.0580668
0.0580668
0.0580668
0.0580668
0.0580668
0.0580668
0.0580668
0.0580668
0.0580668
0.0580668
0.0580668
0.0580668
0.0580668
0.0580668
0.0580668
0.0580668
0.0580668
0.0580668
0.0580668
0.0580668
0.0580668
0.0580668
0.0580668
0.0580668
0.0580668
0.0580668
0.0580668
0.0580668
0.0580668
0.0580668
0.0580668
0.0580668
0.0580668
0.0580668
0.0580668
0.0580668
0.0580668
0.0580668
0.0580668
0.0580668
0.0580668
0.0580668
0.0580668
0.0580668
0.0580668
0.0580668
0.0580668
0.0580668
0.0580668
0.0580668
0.0580668
0.0580668
0.0580668
0.0580668
0.0580668
0.0580668
0.0580668
0.0580668
0.0580668
0.0580668
0.0580668
0.0580668
0.0580668
0.0580668
0.0580668
0.0580668
0.0580668
0.0580668
0.0580668
0.0580668
0.0580668
0.0580668
0.0580668
0.0580668
0.0580668
0.0580668
0.0580668
0.0580667
0.0580667
0.0580667
0.0580667
0.0580667
0.0580667
0.0580667
0.0580667
0.0580667
0.0580667
0.0580667
0.0580667
0.0580667
0.0580667
0.0580667
0.0580667
0.0580667
0.0580667
0.0580667
0.0580667
0.0580667
0.0580667
0.0580667
0.0580667
0.0580667
0.0580667
0.0580667
0.0580667
0.0580667
0.0580667
0.0580667
0.0580667
0.0580667
0.0580667
0.0580667
0.0580667
0.0580667
0.0580667
0.0580667
0.0580667
0.0580667
0.0580667
0.0580667
0.0580667
0.0580667
0.0580667
0.0580667
0.0580667
0.0580667
0.0580667
0.0580667
0.0580667
0.0580667
0.0580667
0.0580667
0.0580667
0.0580667
0.0580667
0.0580667
0.0580667
0.0580667
0.0580667
0.0580667
0.0580667
0.0580667
0.0580667
0.0580667
0.0580667
0.0580667
0.0580666
0.0580666
0.0580666
0.0580666
0.0580666
0.0580666
0.0580666
0.0580666
0.0580666
0.0580666
0.0580666
0.0580666
0.0580666
0.0580666
0.0580666
0.0580666
0.0580666
0.0580666
0.0580666
0.0580666
0.0580666
0.0580666
0.0580666
0.0580666
0.0580666
0.0580666
0.0580666
0.0580666
0.0580666
0.0580666
0.0580666
0.0580666
0.0580666
0.0580666
0.0580666
0.0580666
0.0580666
0.0580666
0.0580666
0.0580666
0.0580666
0.0580666
0.0580666
0.0580666
0.0580666
0.0580666
0.0580666
0.0580666
0.0580665
0.0580665
0.0580665
0.0580665
0.0580665
0.0580665
0.0580665
0.0580665
0.0580665
0.0580665
0.0580665
0.0580665
0.0580665
0.0580665
0.0580665
0.0580665
0.0580665
0.0580665
0.0580665
0.0580665
0.0580665
0.0580665
0.0580665
0.0580665
0.0580665
0.0580665
0.0580665
0.0580665
0.0580665
0.0580665
0.0580665
0.0580665
0.0580665
0.0580665
0.0580665
0.0580665
0.0580664
0.0580664
0.0580664
0.0580664
0.0580664
0.0580664
0.0580664
0.0580664
0.0580664
0.0580664
0.0580664
0.0580664
0.0580664
0.0580664
0.0580664
0.0580664
0.0580664
0.0580664
0.0580664
0.0580664
0.0580664
0.0580664
0.0580664
0.0580664
0.0580664
0.0580664
0.0580663
0.0580663
0.0580663
0.0580663
0.0580663
0.0580663
0.0580663
0.0580663
0.0580663
0.0580663
0.0580663
0.0580663
0.0580663
0.0580663
0.0580663
0.0580663
0.0580663
0.0580663
0.0580663
0.0580663
0.0580663
0.0580663
0.0580662
0.0580662
0.0580662
0.0580662
0.0580662
0.0580662
0.0580662
0.0580662
0.0580662
0.0580662
0.0580662
0.0580662
0.0580662
0.0580662
0.0580662
0.0580662
0.0580662
0.0580661
0.0580661
0.0580661
0.0580661
0.0580661
0.0580661
0.0580661
0.0580661
0.0580661
0.0580661
0.0580661
0.0580661
0.0580661
0.0580661
0.058066
0.058066
0.058066
0.058066
0.058066
0.058066
0.058066
0.058066
0.058066
0.058066
0.058066
0.058066
0.0580659
0.0580659
0.0580659
0.0580659
0.0580659
0.0580659
0.0580659
0.0580659
0.0580659
0.0580659
0.0580658
0.0580658
0.0580658
0.0580658
0.0580658
0.0580658
0.0580658
0.0580658
0.0580657
0.0580657
0.0580657
0.0580657
0.0580657
0.0580657
0.0580657
0.0580657
0.0580656
0.0580656
0.0580656
0.0580656
0.0580656
0.0580656
0.0580655
0.0580655
0.0580655
0.0580655
0.0580655
0.0580655
0.0580654
0.0580654
0.0580654
0.0580654
0.0580654
0.0580654
0.0580653
0.0580653
0.0580653
0.0580653
0.0580652
0.0580652
0.0580652
0.0580652
0.0580652
0.0580651
0.0580651
0.0580651
0.058065
0.058065
0.058065
0.058065
0.0580649
0.0580649
0.0580649
0.0580648
0.0580648
0.0580648
0.0580647
0.0580647
0.0580647
0.0580646
0.0580646
0.0580645
0.0580645
0.0580645
0.0580644
0.0580644
0.0580643
0.0580643
0.0580642
0.0580642
0.0580641
0.0580641
0.058064
0.0580639
0.0580639
0.0580638
0.0580637
0.0580637
0.0580636
0.0580635
0.0580634
0.0580633
0.0580633
0.0580632
0.0580631
0.058063
0.0580629
0.0580627
0.0580626
0.0580625
0.0580624
0.0580622
0.0580621
0.0580619
0.0580618
0.0580616
0.0580614
0.0580612
0.058061
0.0580608
0.0580606
0.0580603
0.05806
0.0580597
0.0580594
0.058059
0.0580586
0.0580582
0.0580577
0.0580572
0.0580566
0.058056
0.0580552
0.0580544
0.0580534
0.0580523
0.058051
0.0580494
0.0580476
0.0580454
0.0580426
0.0580392
0.0580349
0.0580292
0.0580214
0.0580101
0.0579926
0.057963
0.0579078
0.0577904
0.0574903
0.0565348
0.0528546
0.0302297
0.0148531
0.00728761
0.00359264
0.00177994
0.000885029
0.000440994
0.000219967
0.000109754
5.47567e-05
2.731e-05
1.36155e-05
6.78547e-06
3.38048e-06
1.68369e-06
8.38437e-07
4.17495e-07
2.07901e-07
1.0355e-07
5.16179e-08
2.57497e-08
1.28826e-08
6.48212e-09
3.28289e-09
1.67895e-09
9.7679e-10
6.91847e-10
4.10172e-10
2.64801e-10
1.90515e-10
1.55738e-10
1.38586e-10
1.29042e-10
1.23936e-10
1.19918e-10
1.18177e-10
1.17124e-10
1.165e-10
1.16203e-10
1.16045e-10
1.15936e-10
1.15861e-10
1.15822e-10
1.15807e-10
1.15791e-10
1.15784e-10
1.15779e-10
1.15776e-10
1.15775e-10
1.15774e-10
1.15774e-10
1.15774e-10
1.15774e-10
1.15775e-10
1.15775e-10
1.15776e-10
1.15776e-10
1.15776e-10
1.15777e-10
1.15777e-10
1.15777e-10
1.15778e-10
1.15778e-10
1.15779e-10
1.15779e-10
1.15779e-10
1.1578e-10
1.1578e-10
1.1578e-10
1.15781e-10
1.15781e-10
1.15781e-10
1.15782e-10
1.15782e-10
1.15783e-10
1.15783e-10
1.15783e-10
1.15784e-10
1.15784e-10
1.15785e-10
1.15785e-10
1.15785e-10
1.15786e-10
1.15786e-10
1.15786e-10
1.15787e-10
1.15787e-10
1.15787e-10
1.15788e-10
1.15788e-10
1.15789e-10
1.15789e-10
1.15789e-10
1.1579e-10
1.1579e-10
1.15791e-10
1.15791e-10
1.15791e-10
1.15792e-10
1.15792e-10
1.15792e-10
1.15793e-10
1.15793e-10
1.15793e-10
1.15794e-10
1.15794e-10
1.15795e-10
1.15795e-10
1.15795e-10
1.15796e-10
1.15796e-10
1.15797e-10
1.15797e-10
1.15797e-10
1.15798e-10
1.15798e-10
1.15799e-10
1.15799e-10
1.15799e-10
1.158e-10
1.158e-10
1.15801e-10
1.15801e-10
1.15801e-10
1.15802e-10
1.15802e-10
1.15802e-10
1.15803e-10
1.15803e-10
1.15803e-10
1.15804e-10
1.15804e-10
1.15805e-10
1.15805e-10
1.15805e-10
1.15806e-10
1.15806e-10
1.15807e-10
1.15807e-10
1.15807e-10
1.15808e-10
1.15808e-10
1.15808e-10
1.15809e-10
1.15809e-10
1.1581e-10
1.1581e-10
1.1581e-10
1.15811e-10
1.15811e-10
1.15812e-10
1.15812e-10
1.15812e-10
1.15813e-10
1.15813e-10
1.15813e-10
1.15814e-10
1.15814e-10
1.15814e-10
1.15815e-10
1.15815e-10
1.15816e-10
1.15816e-10
1.15816e-10
1.15817e-10
1.15817e-10
1.15817e-10
1.15818e-10
1.15818e-10
1.15819e-10
1.15819e-10
1.15819e-10
1.1582e-10
1.1582e-10
1.15821e-10
1.15821e-10
1.15822e-10
1.15822e-10
1.15823e-10
1.15823e-10
1.15823e-10
1.15824e-10
1.15824e-10
1.15825e-10
1.15825e-10
1.15825e-10
1.15826e-10
1.15826e-10
1.15827e-10
1.15827e-10
1.15827e-10
1.15828e-10
1.15828e-10
1.15828e-10
1.15829e-10
1.15829e-10
1.1583e-10
1.1583e-10
1.15831e-10
1.15831e-10
1.15831e-10
1.15832e-10
1.15832e-10
1.15832e-10
1.15833e-10
1.15833e-10
1.15834e-10
1.15834e-10
1.15834e-10
1.15835e-10
1.15835e-10
1.15835e-10
1.15836e-10
1.15836e-10
1.15837e-10
1.15837e-10
1.15837e-10
1.15838e-10
1.15838e-10
1.15839e-10
1.15839e-10
1.15839e-10
1.1584e-10
1.1584e-10
1.15841e-10
1.15841e-10
1.15841e-10
1.15842e-10
1.15842e-10
1.15843e-10
1.15843e-10
1.15843e-10
1.15844e-10
1.15844e-10
1.15845e-10
1.15845e-10
1.15845e-10
1.15846e-10
1.15846e-10
1.15847e-10
1.15847e-10
1.15847e-10
1.15848e-10
1.15848e-10
1.15848e-10
1.15849e-10
1.15849e-10
1.1585e-10
1.1585e-10
1.1585e-10
1.15851e-10
1.15851e-10
1.15852e-10
1.15852e-10
1.15852e-10
1.15853e-10
1.15853e-10
1.15854e-10
1.15854e-10
1.15854e-10
1.15855e-10
1.15855e-10
1.15856e-10
1.15856e-10
1.15856e-10
1.15857e-10
1.15857e-10
1.15858e-10
1.15858e-10
1.15859e-10
1.15859e-10
1.15859e-10
1.1586e-10
1.1586e-10
1.15861e-10
1.15861e-10
1.15861e-10
1.15862e-10
1.15862e-10
1.15863e-10
1.15863e-10
1.15863e-10
1.15864e-10
1.15864e-10
1.15864e-10
1.15865e-10
1.15865e-10
1.15866e-10
1.15866e-10
1.15866e-10
1.15867e-10
1.15867e-10
1.15868e-10
1.15868e-10
1.15869e-10
1.15869e-10
1.15869e-10
1.1587e-10
1.1587e-10
1.1587e-10
1.15871e-10
1.15871e-10
1.15872e-10
1.15872e-10
1.15872e-10
1.15873e-10
1.15873e-10
1.15873e-10
1.15874e-10
1.15874e-10
1.15875e-10
1.15875e-10
1.15876e-10
1.15876e-10
1.15877e-10
1.15877e-10
1.15877e-10
1.15878e-10
1.15878e-10
1.15879e-10
1.15879e-10
1.15879e-10
1.1588e-10
1.1588e-10
1.15881e-10
1.15881e-10
1.15882e-10
1.15882e-10
1.15882e-10
1.15883e-10
1.15883e-10
1.15883e-10
1.15884e-10
1.15884e-10
1.15885e-10
1.15885e-10
1.15885e-10
1.15886e-10
1.15886e-10
1.15887e-10
1.15887e-10
1.15887e-10
1.15888e-10
1.15888e-10
1.15889e-10
1.15889e-10
1.15889e-10
1.1589e-10
1.1589e-10
1.15891e-10
1.15891e-10
1.15892e-10
1.15892e-10
1.15892e-10
1.15893e-10
1.15893e-10
1.15894e-10
1.15894e-10
1.15895e-10
1.15895e-10
1.15895e-10
1.15896e-10
1.15896e-10
1.15897e-10
1.15897e-10
1.15897e-10
1.15898e-10
1.15898e-10
1.15898e-10
1.15899e-10
1.15899e-10
1.159e-10
1.159e-10
1.159e-10
1.15901e-10
1.15901e-10
1.15902e-10
1.15902e-10
1.15902e-10
1.15903e-10
1.15903e-10
1.15904e-10
1.15904e-10
1.15905e-10
1.15905e-10
1.15905e-10
1.15906e-10
1.15906e-10
1.15907e-10
1.15907e-10
1.15907e-10
1.15908e-10
1.15908e-10
1.15909e-10
1.15909e-10
1.15909e-10
1.1591e-10
1.1591e-10
1.15911e-10
1.15911e-10
1.15911e-10
1.15912e-10
1.15912e-10
1.15913e-10
1.15913e-10
1.15913e-10
1.15914e-10
1.15914e-10
1.15915e-10
1.15915e-10
1.15916e-10
1.15916e-10
1.15916e-10
1.15917e-10
1.15917e-10
1.15918e-10
1.15918e-10
1.15918e-10
1.15919e-10
1.15919e-10
1.1592e-10
1.1592e-10
1.1592e-10
1.15921e-10
1.15921e-10
1.15922e-10
1.15922e-10
1.15922e-10
1.15923e-10
1.15923e-10
1.15923e-10
1.15924e-10
1.15924e-10
1.15925e-10
1.15925e-10
1.15926e-10
1.15926e-10
1.15927e-10
1.15927e-10
1.15927e-10
1.15928e-10
1.15928e-10
1.15929e-10
1.15929e-10
)
;

boundaryField
{
    fixedWall
    {
        type            zeroGradient;
    }
    outlet
    {
        type            inletOutlet;
        inletValue      uniform 0;
        value           uniform 1.15929e-10;
    }
    defaultFaces
    {
        type            empty;
    }
}


// ************************************************************************* //
