/*--------------------------------*- C++ -*----------------------------------*\
| =========                 |                                                 |
| \\      /  F ield         | OpenFOAM: The Open Source CFD Toolbox           |
|  \\    /   O peration     | Version:  2406                                  |
|   \\  /    A nd           | Website:  www.openfoam.com                      |
|    \\/     M anipulation  |                                                 |
\*---------------------------------------------------------------------------*/
FoamFile
{
    version     2.0;
    format      ascii;
    arch        "LSB;label=32;scalar=64";
    class       volVectorField;
    location    "3.5";
    object      U;
}
// * * * * * * * * * * * * * * * * * * * * * * * * * * * * * * * * * * * * * //

dimensions      [0 1 -1 0 0 0 0];

internalField   nonuniform List<vector> 
1000
(
(-5.15779e-06 0 0)
(-2.38852e-05 0 0)
(-5.85555e-05 0 0)
(-0.000103177 0 0)
(-0.000154684 0 0)
(-0.000211338 0 0)
(-0.000271953 0 0)
(-0.000335609 0 0)
(-0.000401576 0 0)
(-0.000469277 0 0)
(-0.000538242 0 0)
(-0.00060809 0 0)
(-0.000678497 0 0)
(-0.000749193 0 0)
(-0.000819947 0 0)
(-0.000890559 0 0)
(-0.000960854 0 0)
(-0.00103068 0 0)
(-0.00109991 0 0)
(-0.00116842 0 0)
(-0.00123611 0 0)
(-0.00130288 0 0)
(-0.00136867 0 0)
(-0.00143338 0 0)
(-0.00149698 0 0)
(-0.00155938 0 0)
(-0.00162056 0 0)
(-0.00168047 0 0)
(-0.00173906 0 0)
(-0.00179632 0 0)
(-0.00185221 0 0)
(-0.00190671 0 0)
(-0.00195982 0 0)
(-0.0020115 0 0)
(-0.00206176 0 0)
(-0.00211059 0 0)
(-0.00215799 0 0)
(-0.00220396 0 0)
(-0.0022485 0 0)
(-0.00229161 0 0)
(-0.00233332 0 0)
(-0.00237362 0 0)
(-0.00241253 0 0)
(-0.00245007 0 0)
(-0.00248626 0 0)
(-0.00252111 0 0)
(-0.00255464 0 0)
(-0.00258687 0 0)
(-0.00261784 0 0)
(-0.00264755 0 0)
(-0.00267605 0 0)
(-0.00270335 0 0)
(-0.00272948 0 0)
(-0.00275447 0 0)
(-0.00277835 0 0)
(-0.00280115 0 0)
(-0.0028229 0 0)
(-0.00284362 0 0)
(-0.00286335 0 0)
(-0.00288212 0 0)
(-0.00289996 0 0)
(-0.00291689 0 0)
(-0.00293296 0 0)
(-0.00294819 0 0)
(-0.0029626 0 0)
(-0.00297624 0 0)
(-0.00298913 0 0)
(-0.0030013 0 0)
(-0.00301277 0 0)
(-0.00302358 0 0)
(-0.00303376 0 0)
(-0.00304333 0 0)
(-0.00305231 0 0)
(-0.00306073 0 0)
(-0.00306863 0 0)
(-0.00307607 0 0)
(-0.003083 0 0)
(-0.0030894 0 0)
(-0.00309541 0 0)
(-0.00310103 0 0)
(-0.00310626 0 0)
(-0.00311113 0 0)
(-0.00311566 0 0)
(-0.00311984 0 0)
(-0.00312373 0 0)
(-0.00312732 0 0)
(-0.00313063 0 0)
(-0.00313369 0 0)
(-0.0031365 0 0)
(-0.00313909 0 0)
(-0.00314146 0 0)
(-0.00314363 0 0)
(-0.00314561 0 0)
(-0.00314742 0 0)
(-0.00314907 0 0)
(-0.00315056 0 0)
(-0.00315191 0 0)
(-0.00315313 0 0)
(-0.00315423 0 0)
(-0.00315521 0 0)
(-0.00315609 0 0)
(-0.00315687 0 0)
(-0.00315756 0 0)
(-0.00315818 0 0)
(-0.0031587 0 0)
(-0.00315917 0 0)
(-0.00315956 0 0)
(-0.0031599 0 0)
(-0.00316019 0 0)
(-0.00316042 0 0)
(-0.00316061 0 0)
(-0.00316075 0 0)
(-0.00316086 0 0)
(-0.00316094 0 0)
(-0.00316098 0 0)
(-0.00316099 0 0)
(-0.00316098 0 0)
(-0.00316095 0 0)
(-0.00316089 0 0)
(-0.00316082 0 0)
(-0.00316072 0 0)
(-0.00316062 0 0)
(-0.0031605 0 0)
(-0.00316036 0 0)
(-0.00316022 0 0)
(-0.00316007 0 0)
(-0.00315991 0 0)
(-0.00315974 0 0)
(-0.00315956 0 0)
(-0.00315938 0 0)
(-0.0031592 0 0)
(-0.00315901 0 0)
(-0.00315881 0 0)
(-0.00315862 0 0)
(-0.00315842 0 0)
(-0.00315822 0 0)
(-0.00315802 0 0)
(-0.00315781 0 0)
(-0.00315761 0 0)
(-0.0031574 0 0)
(-0.00315719 0 0)
(-0.00315699 0 0)
(-0.00315678 0 0)
(-0.00315657 0 0)
(-0.00315637 0 0)
(-0.00315616 0 0)
(-0.00315595 0 0)
(-0.00315575 0 0)
(-0.00315554 0 0)
(-0.00315534 0 0)
(-0.00315513 0 0)
(-0.00315493 0 0)
(-0.00315473 0 0)
(-0.00315452 0 0)
(-0.00315432 0 0)
(-0.00315412 0 0)
(-0.00315392 0 0)
(-0.00315372 0 0)
(-0.00315352 0 0)
(-0.00315332 0 0)
(-0.00315312 0 0)
(-0.00315293 0 0)
(-0.00315273 0 0)
(-0.00315253 0 0)
(-0.00315234 0 0)
(-0.00315214 0 0)
(-0.00315195 0 0)
(-0.00315175 0 0)
(-0.00315156 0 0)
(-0.00315136 0 0)
(-0.00315117 0 0)
(-0.00315098 0 0)
(-0.00315078 0 0)
(-0.00315059 0 0)
(-0.0031504 0 0)
(-0.00315021 0 0)
(-0.00315001 0 0)
(-0.00314982 0 0)
(-0.00314963 0 0)
(-0.00314944 0 0)
(-0.00314925 0 0)
(-0.00314906 0 0)
(-0.00314887 0 0)
(-0.00314868 0 0)
(-0.00314848 0 0)
(-0.00314829 0 0)
(-0.0031481 0 0)
(-0.00314791 0 0)
(-0.00314772 0 0)
(-0.00314753 0 0)
(-0.00314734 0 0)
(-0.00314715 0 0)
(-0.00314696 0 0)
(-0.00314676 0 0)
(-0.00314657 0 0)
(-0.00314638 0 0)
(-0.00314619 0 0)
(-0.003146 0 0)
(-0.00314581 0 0)
(-0.00314561 0 0)
(-0.00314542 0 0)
(-0.00314523 0 0)
(-0.00314504 0 0)
(-0.00314484 0 0)
(-0.00314465 0 0)
(-0.00314445 0 0)
(-0.00314426 0 0)
(-0.00314407 0 0)
(-0.00314387 0 0)
(-0.00314368 0 0)
(-0.00314348 0 0)
(-0.00314329 0 0)
(-0.00314309 0 0)
(-0.0031429 0 0)
(-0.0031427 0 0)
(-0.0031425 0 0)
(-0.00314231 0 0)
(-0.00314211 0 0)
(-0.00314191 0 0)
(-0.00314172 0 0)
(-0.00314152 0 0)
(-0.00314132 0 0)
(-0.00314112 0 0)
(-0.00314093 0 0)
(-0.00314073 0 0)
(-0.00314053 0 0)
(-0.00314033 0 0)
(-0.00314013 0 0)
(-0.00313993 0 0)
(-0.00313973 0 0)
(-0.00313953 0 0)
(-0.00313933 0 0)
(-0.00313914 0 0)
(-0.00313894 0 0)
(-0.00313874 0 0)
(-0.00313854 0 0)
(-0.00313834 0 0)
(-0.00313814 0 0)
(-0.00313793 0 0)
(-0.00313773 0 0)
(-0.00313753 0 0)
(-0.00313733 0 0)
(-0.00313713 0 0)
(-0.00313693 0 0)
(-0.00313673 0 0)
(-0.00313653 0 0)
(-0.00313633 0 0)
(-0.00313612 0 0)
(-0.00313592 0 0)
(-0.00313572 0 0)
(-0.00313552 0 0)
(-0.00313532 0 0)
(-0.00313511 0 0)
(-0.00313491 0 0)
(-0.00313471 0 0)
(-0.0031345 0 0)
(-0.0031343 0 0)
(-0.0031341 0 0)
(-0.00313389 0 0)
(-0.00313369 0 0)
(-0.00313348 0 0)
(-0.00313328 0 0)
(-0.00313307 0 0)
(-0.00313287 0 0)
(-0.00313266 0 0)
(-0.00313246 0 0)
(-0.00313225 0 0)
(-0.00313204 0 0)
(-0.00313184 0 0)
(-0.00313163 0 0)
(-0.00313142 0 0)
(-0.00313121 0 0)
(-0.00313101 0 0)
(-0.0031308 0 0)
(-0.00313059 0 0)
(-0.00313038 0 0)
(-0.00313018 0 0)
(-0.00312997 0 0)
(-0.00312976 0 0)
(-0.00312955 0 0)
(-0.00312934 0 0)
(-0.00312914 0 0)
(-0.00312893 0 0)
(-0.00312872 0 0)
(-0.00312851 0 0)
(-0.0031283 0 0)
(-0.0031281 0 0)
(-0.00312789 0 0)
(-0.00312768 0 0)
(-0.00312747 0 0)
(-0.00312727 0 0)
(-0.00312706 0 0)
(-0.00312685 0 0)
(-0.00312665 0 0)
(-0.00312644 0 0)
(-0.00312623 0 0)
(-0.00312603 0 0)
(-0.00312582 0 0)
(-0.00312562 0 0)
(-0.00312541 0 0)
(-0.00312521 0 0)
(-0.003125 0 0)
(-0.0031248 0 0)
(-0.0031246 0 0)
(-0.00312439 0 0)
(-0.00312419 0 0)
(-0.00312399 0 0)
(-0.00312378 0 0)
(-0.00312358 0 0)
(-0.00312338 0 0)
(-0.00312317 0 0)
(-0.00312297 0 0)
(-0.00312277 0 0)
(-0.00312257 0 0)
(-0.00312237 0 0)
(-0.00312216 0 0)
(-0.00312196 0 0)
(-0.00312176 0 0)
(-0.00312156 0 0)
(-0.00312136 0 0)
(-0.00312116 0 0)
(-0.00312095 0 0)
(-0.00312075 0 0)
(-0.00312055 0 0)
(-0.00312035 0 0)
(-0.00312015 0 0)
(-0.00311995 0 0)
(-0.00311975 0 0)
(-0.00311954 0 0)
(-0.00311934 0 0)
(-0.00311914 0 0)
(-0.00311894 0 0)
(-0.00311873 0 0)
(-0.00311853 0 0)
(-0.00311833 0 0)
(-0.00311813 0 0)
(-0.00311792 0 0)
(-0.00311772 0 0)
(-0.00311751 0 0)
(-0.00311731 0 0)
(-0.0031171 0 0)
(-0.0031169 0 0)
(-0.00311669 0 0)
(-0.00311648 0 0)
(-0.00311628 0 0)
(-0.00311607 0 0)
(-0.00311586 0 0)
(-0.00311566 0 0)
(-0.00311545 0 0)
(-0.00311524 0 0)
(-0.00311503 0 0)
(-0.00311482 0 0)
(-0.00311461 0 0)
(-0.0031144 0 0)
(-0.00311419 0 0)
(-0.00311398 0 0)
(-0.00311377 0 0)
(-0.00311356 0 0)
(-0.00311335 0 0)
(-0.00311314 0 0)
(-0.00311293 0 0)
(-0.00311272 0 0)
(-0.00311251 0 0)
(-0.00311231 0 0)
(-0.0031121 0 0)
(-0.00311189 0 0)
(-0.00311168 0 0)
(-0.00311147 0 0)
(-0.00311126 0 0)
(-0.00311106 0 0)
(-0.00311085 0 0)
(-0.00311064 0 0)
(-0.00311044 0 0)
(-0.00311023 0 0)
(-0.00311003 0 0)
(-0.00310982 0 0)
(-0.00310962 0 0)
(-0.00310941 0 0)
(-0.00310921 0 0)
(-0.003109 0 0)
(-0.0031088 0 0)
(-0.0031086 0 0)
(-0.00310839 0 0)
(-0.00310819 0 0)
(-0.00310799 0 0)
(-0.00310779 0 0)
(-0.00310759 0 0)
(-0.00310738 0 0)
(-0.00310718 0 0)
(-0.00310698 0 0)
(-0.00310678 0 0)
(-0.00310658 0 0)
(-0.00310638 0 0)
(-0.00310618 0 0)
(-0.00310598 0 0)
(-0.00310579 0 0)
(-0.00310559 0 0)
(-0.00310539 0 0)
(-0.00310519 0 0)
(-0.00310499 0 0)
(-0.0031048 0 0)
(-0.0031046 0 0)
(-0.0031044 0 0)
(-0.00310421 0 0)
(-0.00310401 0 0)
(-0.00310382 0 0)
(-0.00310363 0 0)
(-0.00310344 0 0)
(-0.00310324 0 0)
(-0.00310305 0 0)
(-0.00310287 0 0)
(-0.00310268 0 0)
(-0.00310249 0 0)
(-0.00310231 0 0)
(-0.00310212 0 0)
(-0.00310194 0 0)
(-0.00310176 0 0)
(-0.00310158 0 0)
(-0.00310141 0 0)
(-0.00310123 0 0)
(-0.00310106 0 0)
(-0.00310088 0 0)
(-0.00310071 0 0)
(-0.00310054 0 0)
(-0.00310037 0 0)
(-0.0031002 0 0)
(-0.00310003 0 0)
(-0.00309985 0 0)
(-0.00309967 0 0)
(-0.0030995 0 0)
(-0.00309931 0 0)
(-0.00309913 0 0)
(-0.00309893 0 0)
(-0.00309874 0 0)
(-0.00309853 0 0)
(-0.00309832 0 0)
(-0.0030981 0 0)
(-0.00309788 0 0)
(-0.00309764 0 0)
(-0.0030974 0 0)
(-0.00309715 0 0)
(-0.00309689 0 0)
(-0.00309662 0 0)
(-0.00309635 0 0)
(-0.00309606 0 0)
(-0.00309577 0 0)
(-0.00309548 0 0)
(-0.00309517 0 0)
(-0.00309487 0 0)
(-0.00309456 0 0)
(-0.00309425 0 0)
(-0.00309394 0 0)
(-0.00309364 0 0)
(-0.00309333 0 0)
(-0.00309303 0 0)
(-0.00309273 0 0)
(-0.00309244 0 0)
(-0.00309215 0 0)
(-0.00309187 0 0)
(-0.0030916 0 0)
(-0.00309133 0 0)
(-0.00309107 0 0)
(-0.00309082 0 0)
(-0.00309057 0 0)
(-0.00309033 0 0)
(-0.00309009 0 0)
(-0.00308986 0 0)
(-0.00308963 0 0)
(-0.0030894 0 0)
(-0.00308917 0 0)
(-0.00308895 0 0)
(-0.00308872 0 0)
(-0.00308849 0 0)
(-0.00308826 0 0)
(-0.00308804 0 0)
(-0.00308781 0 0)
(-0.00308758 0 0)
(-0.00308735 0 0)
(-0.00308712 0 0)
(-0.0030869 0 0)
(-0.00308668 0 0)
(-0.00308646 0 0)
(-0.00308625 0 0)
(-0.00308605 0 0)
(-0.00308586 0 0)
(-0.00308567 0 0)
(-0.0030855 0 0)
(-0.00308533 0 0)
(-0.00308516 0 0)
(-0.00308501 0 0)
(-0.00308485 0 0)
(-0.00308471 0 0)
(-0.00308455 0 0)
(-0.0030844 0 0)
(-0.00308424 0 0)
(-0.00308407 0 0)
(-0.00308389 0 0)
(-0.00308369 0 0)
(-0.00308347 0 0)
(-0.00308323 0 0)
(-0.00308296 0 0)
(-0.00308267 0 0)
(-0.00308241 0 0)
(-0.00308194 0 0)
(-0.00308162 0 0)
(-0.00308131 0 0)
(-0.00308078 0 0)
(-0.00308037 0 0)
(-0.00307987 0 0)
(-0.00307936 0 0)
(-0.00307877 0 0)
(-0.0030782 0 0)
(-0.00307761 0 0)
(-0.00307693 0 0)
(-0.00307626 0 0)
(-0.00307554 0 0)
(-0.00307481 0 0)
(-0.00307406 0 0)
(-0.00307332 0 0)
(-0.00307257 0 0)
(-0.00307186 0 0)
(-0.00307118 0 0)
(-0.00307047 0 0)
(-0.00306995 0 0)
(-0.00306933 0 0)
(-0.00306892 0 0)
(-0.0030684 0 0)
(-0.00306792 0 0)
(-0.00306767 0 0)
(-0.00306711 0 0)
(-0.00306668 0 0)
(-0.00306611 0 0)
(-0.00306553 0 0)
(-0.00306485 0 0)
(-0.00306402 0 0)
(-0.00306317 0 0)
(-0.00306224 0 0)
(-0.00306129 0 0)
(-0.00306031 0 0)
(-0.00305928 0 0)
(-0.00305801 0 0)
(-0.00305637 0 0)
(-0.00305392 0 0)
(-0.00305019 0 0)
(-0.00304443 0 0)
(-0.00303593 0 0)
(-0.00302492 0 0)
(-0.00300808 0 0)
(-0.0029837 0 0)
(-0.00295016 0 0)
(-0.00288814 0 0)
(-0.00289084 0 0)
(-0.00282406 0 0)
(-0.00265034 0 0)
(-0.00139176 0 0)
(0.0121272 0 0)
(0.0427918 0 0)
(0.0726926 0 0)
(0.0902115 0 0)
(0.0986877 0 0)
(0.102646 0 0)
(0.104434 0 0)
(0.105272 0 0)
(0.105675 0 0)
(0.105887 0 0)
(0.106005 0 0)
(0.106049 0 0)
(0.106093 0 0)
(0.106107 0 0)
(0.1061 0 0)
(0.106125 0 0)
(0.106116 0 0)
(0.106121 0 0)
(0.106122 0 0)
(0.10613 0 0)
(0.106109 0 0)
(0.106122 0 0)
(0.106134 0 0)
(0.106113 0 0)
(0.106132 0 0)
(0.106114 0 0)
(0.106132 0 0)
(0.106125 0 0)
(0.106128 0 0)
(0.106115 0 0)
(0.106122 0 0)
(0.106135 0 0)
(0.106113 0 0)
(0.106137 0 0)
(0.106122 0 0)
(0.106127 0 0)
(0.106121 0 0)
(0.106129 0 0)
(0.10613 0 0)
(0.106119 0 0)
(0.106136 0 0)
(0.106117 0 0)
(0.106139 0 0)
(0.10613 0 0)
(0.106115 0 0)
(0.106139 0 0)
(0.106121 0 0)
(0.106134 0 0)
(0.106135 0 0)
(0.106121 0 0)
(0.10613 0 0)
(0.10613 0 0)
(0.106131 0 0)
(0.106129 0 0)
(0.106133 0 0)
(0.106122 0 0)
(0.106137 0 0)
(0.106135 0 0)
(0.106119 0 0)
(0.10614 0 0)
(0.106133 0 0)
(0.10612 0 0)
(0.106142 0 0)
(0.10614 0 0)
(0.106111 0 0)
(0.106143 0 0)
(0.106136 0 0)
(0.106125 0 0)
(0.10614 0 0)
(0.106126 0 0)
(0.106137 0 0)
(0.10614 0 0)
(0.106125 0 0)
(0.106138 0 0)
(0.106133 0 0)
(0.106137 0 0)
(0.106125 0 0)
(0.106146 0 0)
(0.106136 0 0)
(0.106122 0 0)
(0.106145 0 0)
(0.106133 0 0)
(0.106136 0 0)
(0.106134 0 0)
(0.10614 0 0)
(0.106128 0 0)
(0.106142 0 0)
(0.106144 0 0)
(0.106123 0 0)
(0.106147 0 0)
(0.10614 0 0)
(0.106126 0 0)
(0.106141 0 0)
(0.106147 0 0)
(0.106132 0 0)
(0.106136 0 0)
(0.10614 0 0)
(0.106139 0 0)
(0.106136 0 0)
(0.10614 0 0)
(0.106137 0 0)
(0.106144 0 0)
(0.106141 0 0)
(0.106127 0 0)
(0.106154 0 0)
(0.106138 0 0)
(0.106121 0 0)
(0.106163 0 0)
(0.106144 0 0)
(0.106119 0 0)
(0.106151 0 0)
(0.106154 0 0)
(0.106144 0 0)
(0.106124 0 0)
(0.106152 0 0)
(0.106143 0 0)
(0.106129 0 0)
(0.106158 0 0)
(0.106132 0 0)
(0.106151 0 0)
(0.106142 0 0)
(0.106145 0 0)
(0.106131 0 0)
(0.106146 0 0)
(0.10616 0 0)
(0.10612 0 0)
(0.106162 0 0)
(0.106146 0 0)
(0.106134 0 0)
(0.106149 0 0)
(0.106138 0 0)
(0.10615 0 0)
(0.10615 0 0)
(0.106136 0 0)
(0.106146 0 0)
(0.106155 0 0)
(0.106131 0 0)
(0.106146 0 0)
(0.106163 0 0)
(0.106132 0 0)
(0.106141 0 0)
(0.106161 0 0)
(0.106142 0 0)
(0.106137 0 0)
(0.106151 0 0)
(0.106146 0 0)
(0.106148 0 0)
(0.106154 0 0)
(0.106137 0 0)
(0.106149 0 0)
(0.106159 0 0)
(0.106129 0 0)
(0.106155 0 0)
(0.106159 0 0)
(0.106132 0 0)
(0.106158 0 0)
(0.106145 0 0)
(0.106151 0 0)
(0.106142 0 0)
(0.106156 0 0)
(0.106152 0 0)
(0.106136 0 0)
(0.106161 0 0)
(0.106153 0 0)
(0.106139 0 0)
(0.106154 0 0)
(0.106159 0 0)
(0.10614 0 0)
(0.106154 0 0)
(0.106151 0 0)
(0.106149 0 0)
(0.10615 0 0)
(0.106151 0 0)
(0.10616 0 0)
(0.106138 0 0)
(0.10616 0 0)
(0.106157 0 0)
(0.106134 0 0)
(0.106169 0 0)
(0.106152 0 0)
(0.106135 0 0)
(0.106169 0 0)
(0.106155 0 0)
(0.106138 0 0)
(0.106166 0 0)
(0.106153 0 0)
(0.106134 0 0)
(0.10617 0 0)
(0.106159 0 0)
(0.106138 0 0)
(0.106161 0 0)
(0.106154 0 0)
(0.106146 0 0)
(0.106158 0 0)
(0.106161 0 0)
(0.106144 0 0)
(0.106158 0 0)
(0.106161 0 0)
(0.106142 0 0)
(0.106158 0 0)
(0.10617 0 0)
(0.106152 0 0)
(0.106131 0 0)
(0.106169 0 0)
(0.10616 0 0)
(0.106143 0 0)
(0.106167 0 0)
(0.10616 0 0)
(0.106138 0 0)
(0.106162 0 0)
(0.106169 0 0)
(0.106138 0 0)
(0.106171 0 0)
(0.106153 0 0)
(0.106143 0 0)
(0.106169 0 0)
(0.106162 0 0)
(0.106148 0 0)
(0.106158 0 0)
(0.106159 0 0)
(0.106156 0 0)
(0.106164 0 0)
(0.106147 0 0)
(0.106158 0 0)
(0.106162 0 0)
(0.106156 0 0)
(0.106156 0 0)
(0.106159 0 0)
(0.106153 0 0)
(0.106169 0 0)
(0.106159 0 0)
(0.106146 0 0)
(0.10617 0 0)
(0.106153 0 0)
(0.10616 0 0)
(0.10616 0 0)
(0.10616 0 0)
(0.10616 0 0)
(0.106151 0 0)
(0.10616 0 0)
(0.106164 0 0)
(0.106158 0 0)
(0.106166 0 0)
(0.106148 0 0)
(0.106168 0 0)
(0.106161 0 0)
(0.106145 0 0)
(0.106173 0 0)
(0.106166 0 0)
(0.106145 0 0)
(0.106169 0 0)
(0.106166 0 0)
(0.106148 0 0)
(0.106169 0 0)
(0.106157 0 0)
(0.106163 0 0)
(0.10616 0 0)
(0.106162 0 0)
(0.106155 0 0)
(0.106171 0 0)
(0.106162 0 0)
(0.106148 0 0)
(0.106175 0 0)
(0.106152 0 0)
(0.106172 0 0)
(0.106163 0 0)
(0.106149 0 0)
(0.106173 0 0)
(0.106155 0 0)
(0.106164 0 0)
(0.106174 0 0)
(0.106162 0 0)
(0.106147 0 0)
(0.106176 0 0)
(0.106159 0 0)
(0.106159 0 0)
(0.106171 0 0)
(0.106155 0 0)
(0.106169 0 0)
(0.106159 0 0)
(0.10617 0 0)
(0.106163 0 0)
(0.106165 0 0)
(0.10615 0 0)
(0.106169 0 0)
(0.106173 0 0)
(0.106151 0 0)
(0.106178 0 0)
(0.106151 0 0)
(0.106171 0 0)
(0.106173 0 0)
(0.106156 0 0)
(0.106166 0 0)
(0.10617 0 0)
(0.106155 0 0)
(0.106166 0 0)
(0.106166 0 0)
(0.106172 0 0)
(0.106162 0 0)
(0.106154 0 0)
(0.106176 0 0)
(0.106159 0 0)
(0.106167 0 0)
(0.106166 0 0)
(0.106168 0 0)
(0.106156 0 0)
(0.106175 0 0)
(0.106166 0 0)
(0.106151 0 0)
(0.106178 0 0)
(0.106171 0 0)
(0.106153 0 0)
(0.106168 0 0)
(0.106173 0 0)
(0.106166 0 0)
(0.106152 0 0)
(0.106163 0 0)
(0.106183 0 0)
(0.10615 0 0)
(0.106177 0 0)
(0.106171 0 0)
(0.106153 0 0)
(0.106176 0 0)
(0.106171 0 0)
(0.106167 0 0)
(0.106153 0 0)
(0.106168 0 0)
(0.106181 0 0)
(0.106148 0 0)
(0.106183 0 0)
(0.106166 0 0)
(0.106168 0 0)
(0.106147 0 0)
(0.106171 0 0)
(0.106178 0 0)
(0.106155 0 0)
(0.106177 0 0)
(0.106171 0 0)
(0.106156 0 0)
(0.106173 0 0)
(0.106172 0 0)
(0.106152 0 0)
(0.10618 0 0)
(0.106173 0 0)
(0.106155 0 0)
(0.106175 0 0)
(0.106171 0 0)
(0.106169 0 0)
(0.106156 0 0)
(0.106174 0 0)
(0.106179 0 0)
(0.106147 0 0)
(0.106184 0 0)
(0.106171 0 0)
(0.106171 0 0)
(0.106146 0 0)
(0.106173 0 0)
(0.10618 0 0)
(0.106154 0 0)
(0.106183 0 0)
(0.106158 0 0)
(0.106177 0 0)
(0.106169 0 0)
(0.106171 0 0)
(0.106154 0 0)
(0.106173 0 0)
(0.106181 0 0)
(0.10615 0 0)
(0.106182 0 0)
(0.106176 0 0)
(0.106157 0 0)
(0.106175 0 0)
(0.106167 0 0)
(0.106163 0 0)
(0.106177 0 0)
(0.10616 0 0)
(0.106176 0 0)
(0.106176 0 0)
(0.106151 0 0)
(0.106183 0 0)
(0.106172 0 0)
(0.106156 0 0)
(0.106177 0 0)
(0.106174 0 0)
(0.106159 0 0)
(0.106172 0 0)
(0.106171 0 0)
(0.106167 0 0)
(0.106169 0 0)
(0.106173 0 0)
(0.106162 0 0)
(0.106177 0 0)
(0.106174 0 0)
(0.106157 0 0)
(0.10618 0 0)
(0.106167 0 0)
(0.106171 0 0)
(0.106166 0 0)
(0.106175 0 0)
(0.106176 0 0)
(0.106151 0 0)
(0.106179 0 0)
(0.106178 0 0)
(0.106174 0 0)
(0.106158 0 0)
(0.106173 0 0)
(0.106174 0 0)
(0.106166 0 0)
(0.106177 0 0)
(0.106164 0 0)
(0.106172 0 0)
(0.106171 0 0)
(0.106171 0 0)
(0.106167 0 0)
(0.106172 0 0)
(0.106174 0 0)
(0.106155 0 0)
(0.10618 0 0)
(0.106181 0 0)
(0.106153 0 0)
(0.106179 0 0)
(0.106166 0 0)
(0.106172 0 0)
(0.106165 0 0)
(0.106173 0 0)
(0.106179 0 0)
(0.106158 0 0)
(0.106176 0 0)
(0.106175 0 0)
(0.106164 0 0)
(0.106162 0 0)
(0.106179 0 0)
(0.106179 0 0)
(0.106157 0 0)
(0.106172 0 0)
(0.106173 0 0)
(0.10617 0 0)
(0.106172 0 0)
(0.106163 0 0)
(0.10618 0 0)
(0.106174 0 0)
(0.106149 0 0)
(0.106184 0 0)
(0.106173 0 0)
(0.106173 0 0)
)
;

boundaryField
{
    fixedWall
    {
        type            fixedValue;
        value           uniform (0 0 0);
    }
    outlet
    {
        type            pressureInletOutletVelocity;
        value           uniform (0.106173 0 0);
    }
    defaultFaces
    {
        type            empty;
    }
}


// ************************************************************************* //
