/*--------------------------------*- C++ -*----------------------------------*\
| =========                 |                                                 |
| \\      /  F ield         | OpenFOAM: The Open Source CFD Toolbox           |
|  \\    /   O peration     | Version:  2406                                  |
|   \\  /    A nd           | Website:  www.openfoam.com                      |
|    \\/     M anipulation  |                                                 |
\*---------------------------------------------------------------------------*/
FoamFile
{
    version     2.0;
    format      ascii;
    arch        "LSB;label=32;scalar=64";
    class       surfaceScalarField;
    location    "12.9";
    object      phi;
}
// * * * * * * * * * * * * * * * * * * * * * * * * * * * * * * * * * * * * * //

dimensions      [1 0 -1 0 0 0 0];

oriented        oriented;

internalField   nonuniform List<scalar> 
999
(
-1.25091e-08
-4.24053e-08
-8.37247e-08
-1.3269e-07
-1.86848e-07
-2.44523e-07
-3.04548e-07
-3.66101e-07
-4.28586e-07
-4.91568e-07
-5.5472e-07
-6.17805e-07
-6.80633e-07
-7.43077e-07
-8.0503e-07
-8.66417e-07
-9.27178e-07
-9.87267e-07
-1.04665e-06
-1.10532e-06
-1.16324e-06
-1.22041e-06
-1.27682e-06
-1.33247e-06
-1.38736e-06
-1.44149e-06
-1.49486e-06
-1.54748e-06
-1.59936e-06
-1.6505e-06
-1.70091e-06
-1.7506e-06
-1.79956e-06
-1.84782e-06
-1.89538e-06
-1.94225e-06
-1.98843e-06
-2.03394e-06
-2.07878e-06
-2.12296e-06
-2.16649e-06
-2.20937e-06
-2.25162e-06
-2.29324e-06
-2.33424e-06
-2.37463e-06
-2.4144e-06
-2.45358e-06
-2.49217e-06
-2.53017e-06
-2.56759e-06
-2.60444e-06
-2.64072e-06
-2.67644e-06
-2.71161e-06
-2.74624e-06
-2.78032e-06
-2.81386e-06
-2.84688e-06
-2.87937e-06
-2.91134e-06
-2.9428e-06
-2.97376e-06
-3.00421e-06
-3.03417e-06
-3.06363e-06
-3.09261e-06
-3.12111e-06
-3.14914e-06
-3.17669e-06
-3.20378e-06
-3.23041e-06
-3.25659e-06
-3.28231e-06
-3.30759e-06
-3.33243e-06
-3.35683e-06
-3.38081e-06
-3.40435e-06
-3.42748e-06
-3.45019e-06
-3.47249e-06
-3.49438e-06
-3.51587e-06
-3.53696e-06
-3.55766e-06
-3.57797e-06
-3.5979e-06
-3.61745e-06
-3.63662e-06
-3.65542e-06
-3.67386e-06
-3.69193e-06
-3.70965e-06
-3.72701e-06
-3.74403e-06
-3.76071e-06
-3.77704e-06
-3.79305e-06
-3.80872e-06
-3.82407e-06
-3.83909e-06
-3.8538e-06
-3.8682e-06
-3.88228e-06
-3.89607e-06
-3.90955e-06
-3.92275e-06
-3.93565e-06
-3.94826e-06
-3.96059e-06
-3.97265e-06
-3.98443e-06
-3.99594e-06
-4.00719e-06
-4.01817e-06
-4.0289e-06
-4.03938e-06
-4.0496e-06
-4.05959e-06
-4.06933e-06
-4.07884e-06
-4.08812e-06
-4.09717e-06
-4.10599e-06
-4.11459e-06
-4.12298e-06
-4.13115e-06
-4.13912e-06
-4.14688e-06
-4.15444e-06
-4.16181e-06
-4.16898e-06
-4.17596e-06
-4.18275e-06
-4.18937e-06
-4.1958e-06
-4.20207e-06
-4.20816e-06
-4.21408e-06
-4.21984e-06
-4.22544e-06
-4.23088e-06
-4.23616e-06
-4.2413e-06
-4.24629e-06
-4.25113e-06
-4.25583e-06
-4.2604e-06
-4.26483e-06
-4.26913e-06
-4.27331e-06
-4.27735e-06
-4.28128e-06
-4.28508e-06
-4.28877e-06
-4.29235e-06
-4.29581e-06
-4.29917e-06
-4.30242e-06
-4.30557e-06
-4.30862e-06
-4.31157e-06
-4.31443e-06
-4.31719e-06
-4.31987e-06
-4.32246e-06
-4.32496e-06
-4.32738e-06
-4.32972e-06
-4.33198e-06
-4.33417e-06
-4.33628e-06
-4.33833e-06
-4.34029e-06
-4.34217e-06
-4.344e-06
-4.34576e-06
-4.34747e-06
-4.3491e-06
-4.35068e-06
-4.35219e-06
-4.35366e-06
-4.35508e-06
-4.35644e-06
-4.35776e-06
-4.35904e-06
-4.36026e-06
-4.36144e-06
-4.36258e-06
-4.36366e-06
-4.36472e-06
-4.36573e-06
-4.3667e-06
-4.36764e-06
-4.36854e-06
-4.3694e-06
-4.37023e-06
-4.37103e-06
-4.37179e-06
-4.37253e-06
-4.37323e-06
-4.37391e-06
-4.37456e-06
-4.37519e-06
-4.37578e-06
-4.37636e-06
-4.37691e-06
-4.37744e-06
-4.37794e-06
-4.37843e-06
-4.37889e-06
-4.37934e-06
-4.37976e-06
-4.38017e-06
-4.38056e-06
-4.38093e-06
-4.38129e-06
-4.38163e-06
-4.38196e-06
-4.38227e-06
-4.38257e-06
-4.38285e-06
-4.38312e-06
-4.38338e-06
-4.38363e-06
-4.38387e-06
-4.3841e-06
-4.38431e-06
-4.38452e-06
-4.38471e-06
-4.3849e-06
-4.38508e-06
-4.38525e-06
-4.38541e-06
-4.38556e-06
-4.38571e-06
-4.38585e-06
-4.38598e-06
-4.38611e-06
-4.38623e-06
-4.38634e-06
-4.38645e-06
-4.38655e-06
-4.38665e-06
-4.38674e-06
-4.38683e-06
-4.38691e-06
-4.38699e-06
-4.38707e-06
-4.38714e-06
-4.3872e-06
-4.38727e-06
-4.38733e-06
-4.38738e-06
-4.38744e-06
-4.38749e-06
-4.38753e-06
-4.38758e-06
-4.38762e-06
-4.38766e-06
-4.3877e-06
-4.38774e-06
-4.38777e-06
-4.3878e-06
-4.38783e-06
-4.38786e-06
-4.38788e-06
-4.38791e-06
-4.38793e-06
-4.38795e-06
-4.38797e-06
-4.38799e-06
-4.388e-06
-4.38802e-06
-4.38803e-06
-4.38805e-06
-4.38806e-06
-4.38807e-06
-4.38808e-06
-4.38809e-06
-4.38809e-06
-4.3881e-06
-4.38811e-06
-4.38812e-06
-4.38812e-06
-4.38813e-06
-4.38813e-06
-4.38813e-06
-4.38814e-06
-4.38814e-06
-4.38814e-06
-4.38814e-06
-4.38815e-06
-4.38815e-06
-4.38815e-06
-4.38815e-06
-4.38815e-06
-4.38815e-06
-4.38815e-06
-4.38815e-06
-4.38815e-06
-4.38815e-06
-4.38814e-06
-4.38814e-06
-4.38814e-06
-4.38814e-06
-4.38814e-06
-4.38813e-06
-4.38813e-06
-4.38813e-06
-4.38813e-06
-4.38813e-06
-4.38812e-06
-4.38812e-06
-4.38812e-06
-4.38811e-06
-4.38811e-06
-4.38811e-06
-4.38811e-06
-4.3881e-06
-4.3881e-06
-4.3881e-06
-4.3881e-06
-4.38809e-06
-4.38809e-06
-4.38809e-06
-4.38808e-06
-4.38808e-06
-4.38808e-06
-4.38808e-06
-4.38807e-06
-4.38807e-06
-4.38807e-06
-4.38807e-06
-4.38806e-06
-4.38806e-06
-4.38806e-06
-4.38806e-06
-4.38805e-06
-4.38805e-06
-4.38805e-06
-4.38805e-06
-4.38805e-06
-4.38804e-06
-4.38804e-06
-4.38804e-06
-4.38804e-06
-4.38803e-06
-4.38803e-06
-4.38803e-06
-4.38803e-06
-4.38803e-06
-4.38803e-06
-4.38803e-06
-4.38802e-06
-4.38802e-06
-4.38802e-06
-4.38802e-06
-4.38802e-06
-4.38802e-06
-4.38802e-06
-4.38802e-06
-4.38802e-06
-4.38802e-06
-4.38802e-06
-4.38802e-06
-4.38802e-06
-4.38801e-06
-4.38801e-06
-4.38801e-06
-4.38801e-06
-4.38801e-06
-4.38801e-06
-4.38801e-06
-4.38801e-06
-4.38801e-06
-4.38801e-06
-4.38801e-06
-4.38801e-06
-4.38801e-06
-4.38801e-06
-4.38801e-06
-4.38801e-06
-4.38801e-06
-4.38801e-06
-4.38801e-06
-4.38801e-06
-4.38801e-06
-4.38801e-06
-4.38801e-06
-4.38802e-06
-4.38802e-06
-4.38802e-06
-4.38802e-06
-4.38802e-06
-4.38802e-06
-4.38802e-06
-4.38802e-06
-4.38802e-06
-4.38802e-06
-4.38802e-06
-4.38802e-06
-4.38802e-06
-4.38802e-06
-4.38802e-06
-4.38802e-06
-4.38802e-06
-4.38802e-06
-4.38802e-06
-4.38803e-06
-4.38803e-06
-4.38803e-06
-4.38803e-06
-4.38803e-06
-4.38803e-06
-4.38803e-06
-4.38803e-06
-4.38803e-06
-4.38803e-06
-4.38803e-06
-4.38803e-06
-4.38803e-06
-4.38803e-06
-4.38803e-06
-4.38803e-06
-4.38803e-06
-4.38803e-06
-4.38803e-06
-4.38803e-06
-4.38803e-06
-4.38803e-06
-4.38803e-06
-4.38803e-06
-4.38803e-06
-4.38803e-06
-4.38803e-06
-4.38803e-06
-4.38803e-06
-4.38803e-06
-4.38803e-06
-4.38803e-06
-4.38803e-06
-4.38803e-06
-4.38803e-06
-4.38803e-06
-4.38803e-06
-4.38803e-06
-4.38803e-06
-4.38803e-06
-4.38803e-06
-4.38803e-06
-4.38803e-06
-4.38803e-06
-4.38803e-06
-4.38803e-06
-4.38803e-06
-4.38803e-06
-4.38803e-06
-4.38803e-06
-4.38803e-06
-4.38803e-06
-4.38803e-06
-4.38803e-06
-4.38803e-06
-4.38803e-06
-4.38803e-06
-4.38803e-06
-4.38803e-06
-4.38803e-06
-4.38803e-06
-4.38803e-06
-4.38803e-06
-4.38803e-06
-4.38803e-06
-4.38803e-06
-4.38803e-06
-4.38803e-06
-4.38803e-06
-4.38803e-06
-4.38803e-06
-4.38803e-06
-4.38803e-06
-4.38803e-06
-4.38803e-06
-4.38803e-06
-4.38803e-06
-4.38803e-06
-4.38803e-06
-4.38803e-06
-4.38803e-06
-4.38803e-06
-4.38803e-06
-4.38803e-06
-4.38803e-06
-4.38803e-06
-4.38803e-06
-4.38803e-06
-4.38803e-06
-4.38802e-06
-4.38802e-06
-4.38802e-06
-4.38802e-06
-4.38802e-06
-4.38802e-06
-4.38802e-06
-4.38802e-06
-4.38802e-06
-4.38802e-06
-4.38802e-06
-4.38802e-06
-4.38802e-06
-4.38802e-06
-4.38802e-06
-4.38802e-06
-4.38802e-06
-4.38802e-06
-4.38802e-06
-4.38802e-06
-4.38802e-06
-4.38802e-06
-4.38802e-06
-4.38802e-06
-4.38802e-06
-4.38802e-06
-4.38802e-06
-4.38801e-06
-4.38801e-06
-4.38801e-06
-4.38801e-06
-4.38801e-06
-4.38801e-06
-4.38801e-06
-4.38801e-06
-4.38801e-06
-4.38801e-06
-4.38801e-06
-4.38801e-06
-4.38801e-06
-4.38801e-06
-4.38801e-06
-4.38801e-06
-4.38801e-06
-4.38801e-06
-4.38801e-06
-4.38801e-06
-4.38801e-06
-4.38801e-06
-4.38801e-06
-4.388e-06
-4.388e-06
-4.388e-06
-4.388e-06
-4.388e-06
-4.388e-06
-4.388e-06
-4.388e-06
-4.388e-06
-4.388e-06
-4.388e-06
-4.388e-06
-4.388e-06
-4.388e-06
-4.388e-06
-4.388e-06
-4.388e-06
-4.388e-06
-4.388e-06
-4.388e-06
-4.388e-06
-4.388e-06
-4.388e-06
-4.38799e-06
-4.38799e-06
-4.38799e-06
-4.38799e-06
-4.38799e-06
-4.38799e-06
-4.38799e-06
-4.38799e-06
-4.38799e-06
-4.38799e-06
-4.38799e-06
-4.38799e-06
-4.38799e-06
-4.38799e-06
-4.38799e-06
-4.38799e-06
-4.38799e-06
-4.38799e-06
-4.38799e-06
-4.38799e-06
-4.38799e-06
-4.38799e-06
-4.38799e-06
-4.38799e-06
-4.38799e-06
-4.38799e-06
-4.38799e-06
-4.38799e-06
-4.38799e-06
-4.38799e-06
-4.38799e-06
-4.38799e-06
-4.38799e-06
-4.38799e-06
-4.38799e-06
-4.38799e-06
-4.38799e-06
-4.38799e-06
-4.38799e-06
-4.38799e-06
-4.38799e-06
-4.38799e-06
-4.38799e-06
-4.38799e-06
-4.38799e-06
-4.38799e-06
-4.38799e-06
-4.38799e-06
-4.38799e-06
-4.38799e-06
-4.38799e-06
-4.38799e-06
-4.38799e-06
-4.38799e-06
-4.38799e-06
-4.38799e-06
-4.38799e-06
-4.38799e-06
-4.38799e-06
-4.38799e-06
-4.38799e-06
-4.38799e-06
-4.38799e-06
-4.38799e-06
-4.38799e-06
-4.38799e-06
-4.38799e-06
-4.38799e-06
-4.38799e-06
-4.38799e-06
-4.38799e-06
-4.38799e-06
-4.38799e-06
-4.38799e-06
-4.38799e-06
-4.38799e-06
-4.38798e-06
-4.38798e-06
-4.38798e-06
-4.38798e-06
-4.38798e-06
-4.38798e-06
-4.38798e-06
-4.38798e-06
-4.38798e-06
-4.38798e-06
-4.38798e-06
-4.38798e-06
-4.38798e-06
-4.38798e-06
-4.38797e-06
-4.38797e-06
-4.38797e-06
-4.38797e-06
-4.38797e-06
-4.38797e-06
-4.38797e-06
-4.38797e-06
-4.38797e-06
-4.38797e-06
-4.38796e-06
-4.38796e-06
-4.38796e-06
-4.38796e-06
-4.38796e-06
-4.38796e-06
-4.38796e-06
-4.38795e-06
-4.38795e-06
-4.38795e-06
-4.38795e-06
-4.38795e-06
-4.38795e-06
-4.38795e-06
-4.38795e-06
-4.38795e-06
-4.38794e-06
-4.38794e-06
-4.38794e-06
-4.38794e-06
-4.38794e-06
-4.38794e-06
-4.38794e-06
-4.38794e-06
-4.38794e-06
-4.38794e-06
-4.38794e-06
-4.38794e-06
-4.38794e-06
-4.38794e-06
-4.38794e-06
-4.38794e-06
-4.38794e-06
-4.38794e-06
-4.38794e-06
-4.38794e-06
-4.38794e-06
-4.38794e-06
-4.38794e-06
-4.38794e-06
-4.38794e-06
-4.38794e-06
-4.38794e-06
-4.38794e-06
-4.38795e-06
-4.38795e-06
-4.38795e-06
-4.38795e-06
-4.38796e-06
-4.38796e-06
-4.38796e-06
-4.38796e-06
-4.38797e-06
-4.38797e-06
-4.38797e-06
-4.38798e-06
-4.38798e-06
-4.38799e-06
-4.388e-06
-4.388e-06
-4.38801e-06
-4.38802e-06
-4.38803e-06
-4.38803e-06
-4.38804e-06
-4.38805e-06
-4.38806e-06
-4.38808e-06
-4.38809e-06
-4.3881e-06
-4.38812e-06
-4.38813e-06
-4.38815e-06
-4.38817e-06
-4.38819e-06
-4.38821e-06
-4.38823e-06
-4.38826e-06
-4.38828e-06
-4.38831e-06
-4.38834e-06
-4.38837e-06
-4.38841e-06
-4.38844e-06
-4.38848e-06
-4.38853e-06
-4.38857e-06
-4.38862e-06
-4.38867e-06
-4.38873e-06
-4.38879e-06
-4.38885e-06
-4.38892e-06
-4.38899e-06
-4.38907e-06
-4.38915e-06
-4.38924e-06
-4.38934e-06
-4.38944e-06
-4.38955e-06
-4.38967e-06
-4.38979e-06
-4.38993e-06
-4.39007e-06
-4.39022e-06
-4.39039e-06
-4.39056e-06
-4.39075e-06
-4.39094e-06
-4.39115e-06
-4.39138e-06
-4.39162e-06
-4.39187e-06
-4.39214e-06
-4.39243e-06
-4.39274e-06
-4.39307e-06
-4.39342e-06
-4.39379e-06
-4.39418e-06
-4.3946e-06
-4.39505e-06
-4.39552e-06
-4.39602e-06
-4.39655e-06
-4.39712e-06
-4.39772e-06
-4.39835e-06
-4.39903e-06
-4.39974e-06
-4.4005e-06
-4.4013e-06
-4.40215e-06
-4.40305e-06
-4.404e-06
-4.405e-06
-4.40607e-06
-4.40719e-06
-4.40838e-06
-4.40963e-06
-4.41095e-06
-4.41235e-06
-4.41383e-06
-4.41538e-06
-4.41702e-06
-4.41875e-06
-4.42058e-06
-4.42249e-06
-4.42452e-06
-4.42665e-06
-4.42889e-06
-4.43124e-06
-4.43372e-06
-4.43633e-06
-4.43907e-06
-4.44194e-06
-4.44497e-06
-4.44814e-06
-4.45147e-06
-4.45496e-06
-4.45863e-06
-4.46247e-06
-4.46649e-06
-4.47071e-06
-4.47513e-06
-4.47976e-06
-4.4846e-06
-4.48967e-06
-4.49497e-06
-4.50051e-06
-4.5063e-06
-4.51236e-06
-4.51868e-06
-4.52528e-06
-4.53217e-06
-4.53937e-06
-4.54687e-06
-4.55469e-06
-4.56285e-06
-4.57135e-06
-4.5802e-06
-4.58942e-06
-4.59902e-06
-4.60901e-06
-4.61941e-06
-4.63022e-06
-4.64146e-06
-4.65314e-06
-4.66528e-06
-4.67789e-06
-4.69098e-06
-4.70458e-06
-4.71868e-06
-4.73331e-06
-4.74848e-06
-4.76421e-06
-4.78052e-06
-4.79741e-06
-4.8149e-06
-4.83302e-06
-4.85177e-06
-4.87117e-06
-4.89125e-06
-4.91201e-06
-4.93347e-06
-4.95565e-06
-4.97857e-06
-5.00225e-06
-5.0267e-06
-5.05194e-06
-5.07799e-06
-5.10487e-06
-5.13259e-06
-5.16118e-06
-5.19065e-06
-5.22102e-06
-5.25232e-06
-5.28455e-06
-5.31775e-06
-5.35192e-06
-5.3871e-06
-5.42329e-06
-5.46053e-06
-5.49882e-06
-5.53819e-06
-5.57867e-06
-5.62026e-06
-5.663e-06
-5.7069e-06
-5.75198e-06
-5.79826e-06
-5.84577e-06
-5.89453e-06
-5.94455e-06
-5.99587e-06
-6.04849e-06
-6.10245e-06
-6.15777e-06
-6.21446e-06
-6.27256e-06
-6.33208e-06
-6.39304e-06
-6.45548e-06
-6.5194e-06
-6.58485e-06
-6.65183e-06
-6.72038e-06
-6.79052e-06
-6.86227e-06
-6.93566e-06
-7.01071e-06
-7.08745e-06
-7.16591e-06
-7.24611e-06
-7.32808e-06
-7.41184e-06
-7.49743e-06
-7.58487e-06
-7.67419e-06
-7.76542e-06
-7.85859e-06
-7.95373e-06
-8.05087e-06
-8.15005e-06
-8.2513e-06
-8.35465e-06
-8.46014e-06
-8.5678e-06
-8.67767e-06
-8.78979e-06
-8.90419e-06
-9.02093e-06
-9.14003e-06
-9.26156e-06
-9.38554e-06
-9.51203e-06
-9.64108e-06
-9.77274e-06
-9.90707e-06
-1.00441e-05
-1.0184e-05
-1.03267e-05
-1.04723e-05
-1.0621e-05
-1.07728e-05
-1.09278e-05
-1.10861e-05
-1.12478e-05
-1.14106e-05
-1.1577e-05
-1.1747e-05
-1.19207e-05
-1.20982e-05
-1.22795e-05
-1.24646e-05
-1.26536e-05
-1.28467e-05
-1.30438e-05
-1.3245e-05
-1.34504e-05
-1.366e-05
-1.38739e-05
-1.40921e-05
-1.43146e-05
-1.45415e-05
-1.47726e-05
-1.50079e-05
-1.52474e-05
-1.54908e-05
-1.57379e-05
-1.59885e-05
-1.62421e-05
-1.64982e-05
-1.67562e-05
-1.70152e-05
-1.72743e-05
-1.7532e-05
-1.7787e-05
-1.80373e-05
-1.82805e-05
-1.85138e-05
-1.8734e-05
-1.89369e-05
-1.91179e-05
-1.92713e-05
-1.93906e-05
-1.94685e-05
)
;

boundaryField
{
    fixedWall
    {
        type            calculated;
        value           uniform 0;
    }
    outlet
    {
        type            calculated;
        value           uniform -1.94965e-05;
    }
    defaultFaces
    {
        type            empty;
    }
}


// ************************************************************************* //
