/*--------------------------------*- C++ -*----------------------------------*\
| =========                 |                                                 |
| \\      /  F ield         | OpenFOAM: The Open Source CFD Toolbox           |
|  \\    /   O peration     | Version:  2406                                  |
|   \\  /    A nd           | Website:  www.openfoam.com                      |
|    \\/     M anipulation  |                                                 |
\*---------------------------------------------------------------------------*/
FoamFile
{
    version     2.0;
    format      ascii;
    arch        "LSB;label=32;scalar=64";
    class       volScalarField;
    location    "5.5";
    object      T;
}
// * * * * * * * * * * * * * * * * * * * * * * * * * * * * * * * * * * * * * //

dimensions      [0 0 0 1 0 0 0];

internalField   nonuniform List<scalar> 
1000
(
310.672
342.307
370.9
397.054
421.192
443.623
464.582
484.254
502.787
520.301
536.896
552.655
567.65
581.94
595.58
608.615
621.086
633.028
644.474
655.452
665.988
676.105
685.825
695.167
704.148
712.787
721.096
729.092
736.786
744.192
751.32
758.182
764.787
771.146
777.268
783.161
788.833
794.293
799.547
804.604
809.469
814.149
818.652
822.982
827.145
831.148
834.996
838.693
842.245
845.657
848.934
852.08
855.099
857.996
860.775
863.441
865.996
868.445
870.792
873.039
875.191
877.252
879.223
881.108
882.912
884.635
886.282
887.856
889.358
890.792
892.16
893.465
894.709
895.894
897.024
898.1
899.123
900.098
901.024
901.905
902.742
903.537
904.292
905.008
905.688
906.332
906.943
907.522
908.07
908.588
909.079
909.543
909.982
910.396
910.787
911.156
911.504
911.833
912.142
912.434
912.708
912.967
913.209
913.438
913.652
913.853
914.041
914.218
914.384
914.54
914.686
914.823
914.951
915.071
915.182
915.287
915.384
915.475
915.56
915.639
915.712
915.781
915.844
915.904
915.959
916.01
916.057
916.101
916.141
916.179
916.214
916.246
916.276
916.303
916.329
916.352
916.373
916.393
916.411
916.428
916.443
916.457
916.47
916.482
916.493
916.503
916.512
916.52
916.527
916.534
916.54
916.545
916.55
916.555
916.559
916.562
916.566
916.568
916.571
916.573
916.575
916.577
916.578
916.579
916.581
916.581
916.582
916.583
916.583
916.583
916.583
916.583
916.583
916.583
916.583
916.583
916.582
916.582
916.581
916.581
916.58
916.579
916.579
916.578
916.577
916.576
916.576
916.575
916.574
916.573
916.572
916.571
916.57
916.569
916.568
916.567
916.566
916.564
916.563
916.562
916.561
916.56
916.559
916.558
916.556
916.555
916.554
916.553
916.551
916.55
916.549
916.548
916.546
916.545
916.544
916.543
916.541
916.54
916.539
916.538
916.536
916.535
916.534
916.532
916.531
916.53
916.529
916.527
916.526
916.525
916.524
916.522
916.521
916.52
916.519
916.517
916.516
916.515
916.514
916.513
916.511
916.51
916.509
916.508
916.507
916.506
916.505
916.504
916.503
916.502
916.5
916.499
916.498
916.498
916.497
916.496
916.495
916.494
916.493
916.492
916.491
916.49
916.49
916.489
916.488
916.487
916.487
916.486
916.485
916.485
916.484
916.483
916.483
916.482
916.482
916.481
916.481
916.48
916.48
916.479
916.479
916.478
916.478
916.478
916.477
916.477
916.477
916.477
916.476
916.476
916.476
916.476
916.476
916.476
916.475
916.475
916.475
916.475
916.475
916.475
916.475
916.475
916.475
916.475
916.475
916.475
916.476
916.476
916.476
916.476
916.476
916.476
916.477
916.477
916.477
916.477
916.478
916.478
916.478
916.479
916.479
916.479
916.48
916.48
916.48
916.481
916.481
916.482
916.482
916.483
916.483
916.484
916.484
916.485
916.485
916.486
916.486
916.487
916.487
916.488
916.488
916.489
916.49
916.49
916.491
916.492
916.492
916.493
916.493
916.494
916.495
916.495
916.496
916.497
916.497
916.498
916.499
916.499
916.5
916.501
916.501
916.502
916.503
916.503
916.504
916.505
916.505
916.506
916.507
916.507
916.508
916.508
916.509
916.51
916.51
916.511
916.511
916.512
916.512
916.513
916.513
916.514
916.514
916.514
916.515
916.515
916.515
916.516
916.516
916.516
916.516
916.517
916.517
916.517
916.517
916.517
916.517
916.517
916.517
916.517
916.517
916.517
916.517
916.517
916.517
916.517
916.517
916.516
916.516
916.516
916.516
916.516
916.515
916.515
916.515
916.514
916.514
916.514
916.513
916.513
916.513
916.513
916.512
916.512
916.512
916.511
916.511
916.511
916.51
916.51
916.51
916.509
916.509
916.509
916.509
916.509
916.508
916.508
916.508
916.508
916.508
916.508
916.508
916.508
916.507
916.507
916.507
916.507
916.507
916.508
916.508
916.508
916.508
916.508
916.508
916.508
916.508
916.509
916.509
916.509
916.509
916.509
916.51
916.51
916.51
916.51
916.511
916.511
916.511
916.511
916.512
916.512
916.512
916.512
916.513
916.513
916.513
916.513
916.513
916.514
916.514
916.514
916.514
916.514
916.514
916.515
916.515
916.515
916.515
916.515
916.515
916.515
916.515
916.515
916.516
916.516
916.516
916.516
916.516
916.516
916.516
916.516
916.516
916.516
916.516
916.516
916.516
916.516
916.516
916.516
916.516
916.516
916.516
916.516
916.516
916.516
916.516
916.516
916.516
916.516
916.516
916.516
916.516
916.516
916.516
916.516
916.516
916.516
916.516
916.516
916.516
916.516
916.516
916.516
916.516
916.516
916.516
916.516
916.516
916.515
916.515
916.515
916.515
916.515
916.515
916.515
916.514
916.514
916.514
916.514
916.513
916.513
916.513
916.513
916.512
916.512
916.512
916.511
916.511
916.511
916.51
916.51
916.509
916.509
916.509
916.508
916.508
916.508
916.507
916.507
916.507
916.506
916.506
916.506
916.506
916.506
916.505
916.505
916.505
916.505
916.505
916.505
916.505
916.505
916.506
916.506
916.506
916.506
916.507
916.507
916.507
916.508
916.508
916.509
916.509
916.51
916.511
916.511
916.512
916.513
916.513
916.514
916.515
916.516
916.516
916.517
916.518
916.519
916.519
916.52
916.521
916.521
916.522
916.522
916.523
916.523
916.524
916.524
916.525
916.525
916.525
916.525
916.525
916.525
916.525
916.525
916.525
916.525
916.525
916.525
916.524
916.524
916.524
916.523
916.523
916.522
916.522
916.521
916.52
916.52
916.519
916.519
916.518
916.518
916.517
916.517
916.516
916.516
916.515
916.515
916.514
916.514
916.514
916.514
916.514
916.513
916.513
916.513
916.513
916.514
916.514
916.514
916.514
916.514
916.515
916.515
916.515
916.515
916.516
916.516
916.516
916.517
916.517
916.517
916.517
916.517
916.518
916.518
916.518
916.518
916.517
916.517
916.517
916.517
916.516
916.516
916.515
916.515
916.514
916.514
916.513
916.512
916.511
916.51
916.509
916.508
916.507
916.506
916.505
916.504
916.503
916.501
916.5
916.499
916.498
916.497
916.496
916.495
916.494
916.493
916.492
916.491
916.49
916.489
916.488
916.488
916.487
916.487
916.486
916.486
916.486
916.486
916.486
916.486
916.486
916.486
916.487
916.487
916.488
916.489
916.49
916.491
916.492
916.494
916.495
916.497
916.498
916.5
916.502
916.504
916.507
916.509
916.511
916.514
916.516
916.519
916.521
916.524
916.526
916.529
916.531
916.534
916.536
916.538
916.54
916.542
916.544
916.546
916.547
916.549
916.55
916.551
916.551
916.552
916.552
916.552
916.552
916.552
916.551
916.55
916.549
916.548
916.547
916.546
916.544
916.543
916.541
916.539
916.538
916.536
916.534
916.533
916.531
916.529
916.528
916.526
916.525
916.523
916.522
916.521
916.519
916.518
916.516
916.515
916.513
916.512
916.51
916.508
916.506
916.504
916.501
916.499
916.496
916.493
916.49
916.487
916.484
916.48
916.477
916.474
916.471
916.467
916.464
916.461
916.458
916.456
916.453
916.45
916.448
916.446
916.444
916.442
916.441
916.439
916.438
916.438
916.437
916.437
916.437
916.438
916.439
916.441
916.443
916.446
916.45
916.453
916.458
916.462
916.467
916.471
916.475
916.479
916.482
916.484
916.485
916.484
916.483
916.48
916.477
916.472
916.467
916.461
916.455
916.449
916.443
916.438
916.434
916.43
916.426
916.424
916.422
916.42
916.42
916.42
916.421
916.423
916.425
916.429
916.432
916.434
916.432
916.424
916.404
916.367
916.308
916.221
916.106
915.963
915.779
915.475
914.766
912.752
906.508
885.261
796.397
605.327
476.515
396.546
349.917
323.836
309.581
301.879
297.74
295.523
294.336
293.701
293.361
293.18
293.083
293.031
293.003
292.988
292.98
292.976
292.974
292.973
292.972
292.972
292.972
292.972
292.972
292.972
292.972
292.972
292.972
292.972
292.972
292.972
292.972
292.973
292.973
292.973
292.973
292.973
292.973
292.973
292.973
292.973
292.973
292.973
292.973
292.973
292.974
292.974
292.974
292.974
292.974
292.974
292.974
292.974
292.974
292.974
292.974
292.974
292.974
292.975
292.975
292.975
292.975
292.975
292.975
292.975
292.975
292.975
292.975
292.975
292.975
292.975
292.975
292.976
292.976
292.976
292.976
292.976
292.976
292.976
292.976
292.976
292.976
292.976
292.976
292.976
292.977
292.977
292.977
292.977
292.977
292.977
292.977
292.977
292.977
292.977
292.977
292.977
292.977
292.977
292.978
292.978
292.978
292.978
292.978
292.978
292.978
292.978
292.978
292.978
292.978
292.978
292.978
292.978
)
;

boundaryField
{
    fixedWall
    {
        type            fixedValue;
        value           uniform 293;
    }
    outlet
    {
        type            inletOutlet;
        inletValue      uniform 293;
        value           uniform 292.979;
    }
    defaultFaces
    {
        type            empty;
    }
}


// ************************************************************************* //
