/*--------------------------------*- C++ -*----------------------------------*\
| =========                 |                                                 |
| \\      /  F ield         | OpenFOAM: The Open Source CFD Toolbox           |
|  \\    /   O peration     | Version:  2406                                  |
|   \\  /    A nd           | Website:  www.openfoam.com                      |
|    \\/     M anipulation  |                                                 |
\*---------------------------------------------------------------------------*/
FoamFile
{
    version     2.0;
    format      ascii;
    arch        "LSB;label=32;scalar=64";
    class       volVectorField;
    location    "11.6";
    object      U;
}
// * * * * * * * * * * * * * * * * * * * * * * * * * * * * * * * * * * * * * //

dimensions      [0 1 -1 0 0 0 0];

internalField   nonuniform List<vector> 
1000
(
(-7.8213e-07 0 0)
(-3.73564e-06 0 0)
(-9.60252e-06 0 0)
(-1.77186e-05 0 0)
(-2.75791e-05 0 0)
(-3.88789e-05 0 0)
(-5.14041e-05 0 0)
(-6.49792e-05 0 0)
(-7.9455e-05 0 0)
(-9.47076e-05 0 0)
(-0.00011063 0 0)
(-0.000127136 0 0)
(-0.000144145 0 0)
(-0.000161591 0 0)
(-0.000179416 0 0)
(-0.000197568 0 0)
(-0.000215999 0 0)
(-0.000234672 0 0)
(-0.000253549 0 0)
(-0.000272597 0 0)
(-0.000291786 0 0)
(-0.000311088 0 0)
(-0.000330481 0 0)
(-0.00034994 0 0)
(-0.000369446 0 0)
(-0.00038898 0 0)
(-0.000408523 0 0)
(-0.00042806 0 0)
(-0.000447576 0 0)
(-0.000467058 0 0)
(-0.000486491 0 0)
(-0.000505866 0 0)
(-0.000525168 0 0)
(-0.00054439 0 0)
(-0.00056352 0 0)
(-0.000582551 0 0)
(-0.000601473 0 0)
(-0.000620277 0 0)
(-0.000638957 0 0)
(-0.000657507 0 0)
(-0.000675919 0 0)
(-0.000694187 0 0)
(-0.000712305 0 0)
(-0.000730269 0 0)
(-0.000748072 0 0)
(-0.000765711 0 0)
(-0.000783182 0 0)
(-0.000800479 0 0)
(-0.000817599 0 0)
(-0.00083454 0 0)
(-0.000851296 0 0)
(-0.000867866 0 0)
(-0.000884247 0 0)
(-0.000900436 0 0)
(-0.000916432 0 0)
(-0.00093223 0 0)
(-0.00094783 0 0)
(-0.000963231 0 0)
(-0.00097843 0 0)
(-0.000993427 0 0)
(-0.00100822 0 0)
(-0.00102281 0 0)
(-0.00103719 0 0)
(-0.00105136 0 0)
(-0.00106533 0 0)
(-0.00107909 0 0)
(-0.00109265 0 0)
(-0.00110599 0 0)
(-0.00111913 0 0)
(-0.00113206 0 0)
(-0.00114478 0 0)
(-0.0011573 0 0)
(-0.0011696 0 0)
(-0.0011817 0 0)
(-0.0011936 0 0)
(-0.00120529 0 0)
(-0.00121678 0 0)
(-0.00122806 0 0)
(-0.00123914 0 0)
(-0.00125002 0 0)
(-0.0012607 0 0)
(-0.00127118 0 0)
(-0.00128147 0 0)
(-0.00129156 0 0)
(-0.00130145 0 0)
(-0.00131115 0 0)
(-0.00132066 0 0)
(-0.00132998 0 0)
(-0.00133911 0 0)
(-0.00134806 0 0)
(-0.00135682 0 0)
(-0.0013654 0 0)
(-0.0013738 0 0)
(-0.00138202 0 0)
(-0.00139006 0 0)
(-0.00139793 0 0)
(-0.00140563 0 0)
(-0.00141315 0 0)
(-0.00142051 0 0)
(-0.0014277 0 0)
(-0.00143473 0 0)
(-0.00144159 0 0)
(-0.0014483 0 0)
(-0.00145485 0 0)
(-0.00146124 0 0)
(-0.00146748 0 0)
(-0.00147357 0 0)
(-0.00147951 0 0)
(-0.0014853 0 0)
(-0.00149095 0 0)
(-0.00149646 0 0)
(-0.00150183 0 0)
(-0.00150707 0 0)
(-0.00151217 0 0)
(-0.00151713 0 0)
(-0.00152197 0 0)
(-0.00152668 0 0)
(-0.00153127 0 0)
(-0.00153573 0 0)
(-0.00154007 0 0)
(-0.0015443 0 0)
(-0.0015484 0 0)
(-0.0015524 0 0)
(-0.00155628 0 0)
(-0.00156006 0 0)
(-0.00156372 0 0)
(-0.00156728 0 0)
(-0.00157074 0 0)
(-0.0015741 0 0)
(-0.00157736 0 0)
(-0.00158053 0 0)
(-0.0015836 0 0)
(-0.00158658 0 0)
(-0.00158947 0 0)
(-0.00159227 0 0)
(-0.00159499 0 0)
(-0.00159762 0 0)
(-0.00160018 0 0)
(-0.00160265 0 0)
(-0.00160504 0 0)
(-0.00160736 0 0)
(-0.00160961 0 0)
(-0.00161178 0 0)
(-0.00161388 0 0)
(-0.00161592 0 0)
(-0.00161788 0 0)
(-0.00161978 0 0)
(-0.00162162 0 0)
(-0.0016234 0 0)
(-0.00162512 0 0)
(-0.00162678 0 0)
(-0.00162838 0 0)
(-0.00162992 0 0)
(-0.00163142 0 0)
(-0.00163287 0 0)
(-0.00163426 0 0)
(-0.00163561 0 0)
(-0.0016369 0 0)
(-0.00163815 0 0)
(-0.00163936 0 0)
(-0.00164052 0 0)
(-0.00164164 0 0)
(-0.00164272 0 0)
(-0.00164376 0 0)
(-0.00164476 0 0)
(-0.00164572 0 0)
(-0.00164664 0 0)
(-0.00164753 0 0)
(-0.00164839 0 0)
(-0.00164922 0 0)
(-0.00165001 0 0)
(-0.00165077 0 0)
(-0.0016515 0 0)
(-0.0016522 0 0)
(-0.00165287 0 0)
(-0.00165352 0 0)
(-0.00165415 0 0)
(-0.00165475 0 0)
(-0.00165533 0 0)
(-0.00165589 0 0)
(-0.00165642 0 0)
(-0.00165693 0 0)
(-0.00165741 0 0)
(-0.00165788 0 0)
(-0.00165833 0 0)
(-0.00165876 0 0)
(-0.00165917 0 0)
(-0.00165957 0 0)
(-0.00165994 0 0)
(-0.00166031 0 0)
(-0.00166065 0 0)
(-0.00166098 0 0)
(-0.0016613 0 0)
(-0.0016616 0 0)
(-0.00166189 0 0)
(-0.00166217 0 0)
(-0.00166243 0 0)
(-0.00166269 0 0)
(-0.00166293 0 0)
(-0.00166316 0 0)
(-0.00166338 0 0)
(-0.00166359 0 0)
(-0.00166379 0 0)
(-0.00166398 0 0)
(-0.00166417 0 0)
(-0.00166434 0 0)
(-0.00166451 0 0)
(-0.00166466 0 0)
(-0.00166482 0 0)
(-0.00166496 0 0)
(-0.0016651 0 0)
(-0.00166523 0 0)
(-0.00166535 0 0)
(-0.00166547 0 0)
(-0.00166558 0 0)
(-0.00166569 0 0)
(-0.00166579 0 0)
(-0.00166589 0 0)
(-0.00166598 0 0)
(-0.00166606 0 0)
(-0.00166615 0 0)
(-0.00166622 0 0)
(-0.0016663 0 0)
(-0.00166637 0 0)
(-0.00166644 0 0)
(-0.0016665 0 0)
(-0.00166656 0 0)
(-0.00166662 0 0)
(-0.00166667 0 0)
(-0.00166672 0 0)
(-0.00166677 0 0)
(-0.00166682 0 0)
(-0.00166686 0 0)
(-0.0016669 0 0)
(-0.00166694 0 0)
(-0.00166697 0 0)
(-0.00166701 0 0)
(-0.00166704 0 0)
(-0.00166707 0 0)
(-0.0016671 0 0)
(-0.00166713 0 0)
(-0.00166715 0 0)
(-0.00166718 0 0)
(-0.0016672 0 0)
(-0.00166722 0 0)
(-0.00166724 0 0)
(-0.00166726 0 0)
(-0.00166728 0 0)
(-0.00166729 0 0)
(-0.00166731 0 0)
(-0.00166732 0 0)
(-0.00166733 0 0)
(-0.00166735 0 0)
(-0.00166736 0 0)
(-0.00166737 0 0)
(-0.00166738 0 0)
(-0.00166739 0 0)
(-0.00166739 0 0)
(-0.0016674 0 0)
(-0.00166741 0 0)
(-0.00166742 0 0)
(-0.00166742 0 0)
(-0.00166743 0 0)
(-0.00166743 0 0)
(-0.00166744 0 0)
(-0.00166744 0 0)
(-0.00166744 0 0)
(-0.00166745 0 0)
(-0.00166745 0 0)
(-0.00166745 0 0)
(-0.00166746 0 0)
(-0.00166746 0 0)
(-0.00166746 0 0)
(-0.00166746 0 0)
(-0.00166746 0 0)
(-0.00166746 0 0)
(-0.00166746 0 0)
(-0.00166747 0 0)
(-0.00166747 0 0)
(-0.00166747 0 0)
(-0.00166747 0 0)
(-0.00166747 0 0)
(-0.00166747 0 0)
(-0.00166746 0 0)
(-0.00166747 0 0)
(-0.00166746 0 0)
(-0.00166747 0 0)
(-0.00166746 0 0)
(-0.00166746 0 0)
(-0.00166746 0 0)
(-0.00166746 0 0)
(-0.00166746 0 0)
(-0.00166745 0 0)
(-0.00166746 0 0)
(-0.00166746 0 0)
(-0.00166745 0 0)
(-0.00166745 0 0)
(-0.00166745 0 0)
(-0.00166745 0 0)
(-0.00166745 0 0)
(-0.00166744 0 0)
(-0.00166744 0 0)
(-0.00166744 0 0)
(-0.00166744 0 0)
(-0.00166744 0 0)
(-0.00166744 0 0)
(-0.00166743 0 0)
(-0.00166744 0 0)
(-0.00166743 0 0)
(-0.00166743 0 0)
(-0.00166743 0 0)
(-0.00166743 0 0)
(-0.00166743 0 0)
(-0.00166743 0 0)
(-0.00166742 0 0)
(-0.00166742 0 0)
(-0.00166742 0 0)
(-0.00166742 0 0)
(-0.00166742 0 0)
(-0.00166742 0 0)
(-0.00166742 0 0)
(-0.00166741 0 0)
(-0.00166741 0 0)
(-0.00166741 0 0)
(-0.00166741 0 0)
(-0.00166741 0 0)
(-0.00166741 0 0)
(-0.0016674 0 0)
(-0.00166741 0 0)
(-0.0016674 0 0)
(-0.0016674 0 0)
(-0.0016674 0 0)
(-0.0016674 0 0)
(-0.0016674 0 0)
(-0.0016674 0 0)
(-0.0016674 0 0)
(-0.0016674 0 0)
(-0.0016674 0 0)
(-0.0016674 0 0)
(-0.0016674 0 0)
(-0.0016674 0 0)
(-0.0016674 0 0)
(-0.00166739 0 0)
(-0.00166739 0 0)
(-0.0016674 0 0)
(-0.00166739 0 0)
(-0.0016674 0 0)
(-0.00166739 0 0)
(-0.00166739 0 0)
(-0.00166739 0 0)
(-0.00166739 0 0)
(-0.00166739 0 0)
(-0.00166739 0 0)
(-0.00166739 0 0)
(-0.00166739 0 0)
(-0.00166739 0 0)
(-0.00166739 0 0)
(-0.00166739 0 0)
(-0.00166739 0 0)
(-0.00166739 0 0)
(-0.00166739 0 0)
(-0.00166739 0 0)
(-0.00166739 0 0)
(-0.00166739 0 0)
(-0.00166739 0 0)
(-0.00166739 0 0)
(-0.00166739 0 0)
(-0.00166739 0 0)
(-0.00166739 0 0)
(-0.00166739 0 0)
(-0.00166739 0 0)
(-0.00166739 0 0)
(-0.00166739 0 0)
(-0.00166739 0 0)
(-0.00166739 0 0)
(-0.0016674 0 0)
(-0.0016674 0 0)
(-0.0016674 0 0)
(-0.0016674 0 0)
(-0.0016674 0 0)
(-0.0016674 0 0)
(-0.0016674 0 0)
(-0.0016674 0 0)
(-0.0016674 0 0)
(-0.0016674 0 0)
(-0.0016674 0 0)
(-0.0016674 0 0)
(-0.0016674 0 0)
(-0.0016674 0 0)
(-0.0016674 0 0)
(-0.0016674 0 0)
(-0.0016674 0 0)
(-0.0016674 0 0)
(-0.0016674 0 0)
(-0.0016674 0 0)
(-0.00166741 0 0)
(-0.0016674 0 0)
(-0.00166741 0 0)
(-0.00166741 0 0)
(-0.00166741 0 0)
(-0.00166741 0 0)
(-0.00166741 0 0)
(-0.00166741 0 0)
(-0.00166741 0 0)
(-0.00166741 0 0)
(-0.00166741 0 0)
(-0.00166741 0 0)
(-0.00166741 0 0)
(-0.00166741 0 0)
(-0.00166741 0 0)
(-0.00166741 0 0)
(-0.00166741 0 0)
(-0.00166741 0 0)
(-0.00166741 0 0)
(-0.00166741 0 0)
(-0.00166741 0 0)
(-0.00166741 0 0)
(-0.00166741 0 0)
(-0.00166741 0 0)
(-0.00166742 0 0)
(-0.00166741 0 0)
(-0.00166742 0 0)
(-0.00166741 0 0)
(-0.00166741 0 0)
(-0.00166742 0 0)
(-0.00166741 0 0)
(-0.00166742 0 0)
(-0.00166742 0 0)
(-0.00166742 0 0)
(-0.00166742 0 0)
(-0.00166742 0 0)
(-0.00166742 0 0)
(-0.00166742 0 0)
(-0.00166742 0 0)
(-0.00166742 0 0)
(-0.00166742 0 0)
(-0.00166742 0 0)
(-0.00166742 0 0)
(-0.00166742 0 0)
(-0.00166742 0 0)
(-0.00166742 0 0)
(-0.00166742 0 0)
(-0.00166742 0 0)
(-0.00166742 0 0)
(-0.00166742 0 0)
(-0.00166742 0 0)
(-0.00166742 0 0)
(-0.00166742 0 0)
(-0.00166742 0 0)
(-0.00166742 0 0)
(-0.00166742 0 0)
(-0.00166742 0 0)
(-0.00166742 0 0)
(-0.00166742 0 0)
(-0.00166742 0 0)
(-0.00166742 0 0)
(-0.00166742 0 0)
(-0.00166742 0 0)
(-0.00166742 0 0)
(-0.00166742 0 0)
(-0.00166742 0 0)
(-0.00166742 0 0)
(-0.00166742 0 0)
(-0.00166742 0 0)
(-0.00166742 0 0)
(-0.00166742 0 0)
(-0.00166742 0 0)
(-0.00166742 0 0)
(-0.00166742 0 0)
(-0.00166742 0 0)
(-0.00166742 0 0)
(-0.00166742 0 0)
(-0.00166742 0 0)
(-0.00166742 0 0)
(-0.00166742 0 0)
(-0.00166742 0 0)
(-0.00166742 0 0)
(-0.00166742 0 0)
(-0.00166742 0 0)
(-0.00166742 0 0)
(-0.00166742 0 0)
(-0.00166742 0 0)
(-0.00166742 0 0)
(-0.00166742 0 0)
(-0.00166742 0 0)
(-0.00166742 0 0)
(-0.00166742 0 0)
(-0.00166742 0 0)
(-0.00166742 0 0)
(-0.00166742 0 0)
(-0.00166742 0 0)
(-0.00166742 0 0)
(-0.00166742 0 0)
(-0.00166742 0 0)
(-0.00166742 0 0)
(-0.00166742 0 0)
(-0.00166742 0 0)
(-0.00166742 0 0)
(-0.00166742 0 0)
(-0.00166742 0 0)
(-0.00166742 0 0)
(-0.00166742 0 0)
(-0.00166742 0 0)
(-0.00166742 0 0)
(-0.00166742 0 0)
(-0.00166742 0 0)
(-0.00166742 0 0)
(-0.00166742 0 0)
(-0.00166742 0 0)
(-0.00166742 0 0)
(-0.00166742 0 0)
(-0.00166742 0 0)
(-0.00166742 0 0)
(-0.00166742 0 0)
(-0.00166742 0 0)
(-0.00166742 0 0)
(-0.00166742 0 0)
(-0.00166742 0 0)
(-0.00166742 0 0)
(-0.00166742 0 0)
(-0.00166742 0 0)
(-0.00166742 0 0)
(-0.00166741 0 0)
(-0.00166742 0 0)
(-0.00166741 0 0)
(-0.00166742 0 0)
(-0.00166742 0 0)
(-0.00166741 0 0)
(-0.00166742 0 0)
(-0.00166741 0 0)
(-0.00166742 0 0)
(-0.00166741 0 0)
(-0.00166742 0 0)
(-0.00166742 0 0)
(-0.00166741 0 0)
(-0.00166742 0 0)
(-0.00166741 0 0)
(-0.00166741 0 0)
(-0.00166741 0 0)
(-0.00166741 0 0)
(-0.00166741 0 0)
(-0.00166741 0 0)
(-0.00166741 0 0)
(-0.00166741 0 0)
(-0.00166741 0 0)
(-0.00166741 0 0)
(-0.00166741 0 0)
(-0.00166741 0 0)
(-0.00166741 0 0)
(-0.00166741 0 0)
(-0.00166741 0 0)
(-0.00166741 0 0)
(-0.00166741 0 0)
(-0.00166741 0 0)
(-0.00166741 0 0)
(-0.00166741 0 0)
(-0.00166741 0 0)
(-0.00166741 0 0)
(-0.00166741 0 0)
(-0.00166741 0 0)
(-0.00166741 0 0)
(-0.00166741 0 0)
(-0.00166741 0 0)
(-0.00166741 0 0)
(-0.00166741 0 0)
(-0.00166741 0 0)
(-0.00166741 0 0)
(-0.00166741 0 0)
(-0.00166741 0 0)
(-0.0016674 0 0)
(-0.00166741 0 0)
(-0.0016674 0 0)
(-0.00166741 0 0)
(-0.00166741 0 0)
(-0.0016674 0 0)
(-0.00166741 0 0)
(-0.0016674 0 0)
(-0.00166741 0 0)
(-0.0016674 0 0)
(-0.00166741 0 0)
(-0.0016674 0 0)
(-0.0016674 0 0)
(-0.0016674 0 0)
(-0.0016674 0 0)
(-0.00166741 0 0)
(-0.0016674 0 0)
(-0.0016674 0 0)
(-0.0016674 0 0)
(-0.0016674 0 0)
(-0.0016674 0 0)
(-0.0016674 0 0)
(-0.0016674 0 0)
(-0.0016674 0 0)
(-0.0016674 0 0)
(-0.0016674 0 0)
(-0.00166741 0 0)
(-0.0016674 0 0)
(-0.0016674 0 0)
(-0.0016674 0 0)
(-0.0016674 0 0)
(-0.0016674 0 0)
(-0.0016674 0 0)
(-0.0016674 0 0)
(-0.00166741 0 0)
(-0.0016674 0 0)
(-0.00166741 0 0)
(-0.00166741 0 0)
(-0.0016674 0 0)
(-0.00166741 0 0)
(-0.0016674 0 0)
(-0.00166741 0 0)
(-0.0016674 0 0)
(-0.00166741 0 0)
(-0.00166741 0 0)
(-0.00166741 0 0)
(-0.00166741 0 0)
(-0.00166741 0 0)
(-0.00166741 0 0)
(-0.00166741 0 0)
(-0.00166741 0 0)
(-0.00166741 0 0)
(-0.00166741 0 0)
(-0.00166741 0 0)
(-0.00166741 0 0)
(-0.00166741 0 0)
(-0.00166741 0 0)
(-0.00166741 0 0)
(-0.00166741 0 0)
(-0.00166741 0 0)
(-0.00166741 0 0)
(-0.00166741 0 0)
(-0.00166741 0 0)
(-0.00166741 0 0)
(-0.00166741 0 0)
(-0.00166741 0 0)
(-0.00166741 0 0)
(-0.00166741 0 0)
(-0.00166741 0 0)
(-0.00166741 0 0)
(-0.00166741 0 0)
(-0.00166741 0 0)
(-0.00166741 0 0)
(-0.00166741 0 0)
(-0.00166741 0 0)
(-0.00166741 0 0)
(-0.00166741 0 0)
(-0.00166741 0 0)
(-0.00166741 0 0)
(-0.00166741 0 0)
(-0.00166741 0 0)
(-0.00166741 0 0)
(-0.00166741 0 0)
(-0.00166741 0 0)
(-0.00166741 0 0)
(-0.00166741 0 0)
(-0.00166741 0 0)
(-0.00166741 0 0)
(-0.00166741 0 0)
(-0.0016674 0 0)
(-0.0016674 0 0)
(-0.00166741 0 0)
(-0.0016674 0 0)
(-0.00166741 0 0)
(-0.0016674 0 0)
(-0.0016674 0 0)
(-0.0016674 0 0)
(-0.0016674 0 0)
(-0.0016674 0 0)
(-0.0016674 0 0)
(-0.0016674 0 0)
(-0.0016674 0 0)
(-0.0016674 0 0)
(-0.0016674 0 0)
(-0.0016674 0 0)
(-0.0016674 0 0)
(-0.0016674 0 0)
(-0.0016674 0 0)
(-0.0016674 0 0)
(-0.0016674 0 0)
(-0.00166739 0 0)
(-0.0016674 0 0)
(-0.0016674 0 0)
(-0.00166739 0 0)
(-0.0016674 0 0)
(-0.00166739 0 0)
(-0.00166739 0 0)
(-0.00166739 0 0)
(-0.00166739 0 0)
(-0.00166739 0 0)
(-0.00166739 0 0)
(-0.00166739 0 0)
(-0.00166739 0 0)
(-0.00166739 0 0)
(-0.00166739 0 0)
(-0.00166738 0 0)
(-0.00166739 0 0)
(-0.00166738 0 0)
(-0.00166739 0 0)
(-0.00166738 0 0)
(-0.00166738 0 0)
(-0.00166738 0 0)
(-0.00166738 0 0)
(-0.00166738 0 0)
(-0.00166738 0 0)
(-0.00166738 0 0)
(-0.00166738 0 0)
(-0.00166738 0 0)
(-0.00166738 0 0)
(-0.00166738 0 0)
(-0.00166738 0 0)
(-0.00166738 0 0)
(-0.00166738 0 0)
(-0.00166738 0 0)
(-0.00166738 0 0)
(-0.00166738 0 0)
(-0.00166738 0 0)
(-0.00166738 0 0)
(-0.00166738 0 0)
(-0.00166738 0 0)
(-0.00166738 0 0)
(-0.00166738 0 0)
(-0.00166738 0 0)
(-0.00166738 0 0)
(-0.00166738 0 0)
(-0.00166738 0 0)
(-0.00166738 0 0)
(-0.00166738 0 0)
(-0.00166738 0 0)
(-0.00166738 0 0)
(-0.00166738 0 0)
(-0.00166738 0 0)
(-0.00166738 0 0)
(-0.00166738 0 0)
(-0.00166738 0 0)
(-0.00166738 0 0)
(-0.00166739 0 0)
(-0.00166739 0 0)
(-0.00166739 0 0)
(-0.00166739 0 0)
(-0.00166739 0 0)
(-0.00166739 0 0)
(-0.00166739 0 0)
(-0.00166739 0 0)
(-0.00166739 0 0)
(-0.00166739 0 0)
(-0.0016674 0 0)
(-0.0016674 0 0)
(-0.0016674 0 0)
(-0.0016674 0 0)
(-0.0016674 0 0)
(-0.0016674 0 0)
(-0.00166741 0 0)
(-0.00166741 0 0)
(-0.00166741 0 0)
(-0.00166741 0 0)
(-0.00166742 0 0)
(-0.00166742 0 0)
(-0.00166742 0 0)
(-0.00166742 0 0)
(-0.00166743 0 0)
(-0.00166743 0 0)
(-0.00166743 0 0)
(-0.00166744 0 0)
(-0.00166744 0 0)
(-0.00166745 0 0)
(-0.00166745 0 0)
(-0.00166746 0 0)
(-0.00166746 0 0)
(-0.00166747 0 0)
(-0.00166747 0 0)
(-0.00166748 0 0)
(-0.00166749 0 0)
(-0.00166749 0 0)
(-0.0016675 0 0)
(-0.00166751 0 0)
(-0.00166752 0 0)
(-0.00166753 0 0)
(-0.00166754 0 0)
(-0.00166755 0 0)
(-0.00166757 0 0)
(-0.00166758 0 0)
(-0.00166759 0 0)
(-0.00166761 0 0)
(-0.00166763 0 0)
(-0.00166765 0 0)
(-0.00166767 0 0)
(-0.00166769 0 0)
(-0.00166771 0 0)
(-0.00166774 0 0)
(-0.00166776 0 0)
(-0.00166779 0 0)
(-0.00166782 0 0)
(-0.00166786 0 0)
(-0.00166789 0 0)
(-0.00166793 0 0)
(-0.00166798 0 0)
(-0.00166802 0 0)
(-0.00166807 0 0)
(-0.00166812 0 0)
(-0.00166818 0 0)
(-0.00166824 0 0)
(-0.00166831 0 0)
(-0.00166838 0 0)
(-0.00166846 0 0)
(-0.00166854 0 0)
(-0.00166863 0 0)
(-0.00166872 0 0)
(-0.00166882 0 0)
(-0.00166893 0 0)
(-0.00166905 0 0)
(-0.00166917 0 0)
(-0.00166931 0 0)
(-0.00166945 0 0)
(-0.0016696 0 0)
(-0.00166977 0 0)
(-0.00166994 0 0)
(-0.00167013 0 0)
(-0.00167033 0 0)
(-0.00167054 0 0)
(-0.00167077 0 0)
(-0.00167101 0 0)
(-0.00167127 0 0)
(-0.00167155 0 0)
(-0.00167184 0 0)
(-0.00167216 0 0)
(-0.00167249 0 0)
(-0.00167285 0 0)
(-0.00167323 0 0)
(-0.00167363 0 0)
(-0.00167406 0 0)
(-0.00167452 0 0)
(-0.001675 0 0)
(-0.00167551 0 0)
(-0.00167606 0 0)
(-0.00167664 0 0)
(-0.00167725 0 0)
(-0.0016779 0 0)
(-0.00167859 0 0)
(-0.00167932 0 0)
(-0.00168009 0 0)
(-0.00168091 0 0)
(-0.00168177 0 0)
(-0.00168269 0 0)
(-0.00168365 0 0)
(-0.00168467 0 0)
(-0.00168575 0 0)
(-0.00168689 0 0)
(-0.00168808 0 0)
(-0.00168935 0 0)
(-0.00169068 0 0)
(-0.00169209 0 0)
(-0.00169356 0 0)
(-0.00169512 0 0)
(-0.00169676 0 0)
(-0.00169848 0 0)
(-0.00170029 0 0)
(-0.00170219 0 0)
(-0.00170418 0 0)
(-0.00170628 0 0)
(-0.00170848 0 0)
(-0.00171078 0 0)
(-0.0017132 0 0)
(-0.00171573 0 0)
(-0.00171838 0 0)
(-0.00172116 0 0)
(-0.00172407 0 0)
(-0.00172711 0 0)
(-0.00173029 0 0)
(-0.00173361 0 0)
(-0.00173708 0 0)
(-0.0017407 0 0)
(-0.00174447 0 0)
(-0.00174842 0 0)
(-0.00175253 0 0)
(-0.00175681 0 0)
(-0.00176127 0 0)
(-0.00176591 0 0)
(-0.00177074 0 0)
(-0.00177577 0 0)
(-0.00178099 0 0)
(-0.00178642 0 0)
(-0.00179206 0 0)
(-0.00179792 0 0)
(-0.001804 0 0)
(-0.0018103 0 0)
(-0.00181683 0 0)
(-0.0018236 0 0)
(-0.00183061 0 0)
(-0.00183787 0 0)
(-0.00184538 0 0)
(-0.00185315 0 0)
(-0.00186118 0 0)
(-0.00186947 0 0)
(-0.00187804 0 0)
(-0.00188688 0 0)
(-0.001896 0 0)
(-0.00190541 0 0)
(-0.0019151 0 0)
(-0.00192509 0 0)
(-0.00193537 0 0)
(-0.00194595 0 0)
(-0.00195683 0 0)
(-0.00196802 0 0)
(-0.00197952 0 0)
(-0.00199132 0 0)
(-0.00200344 0 0)
(-0.00201587 0 0)
(-0.00202862 0 0)
(-0.00204168 0 0)
(-0.00205505 0 0)
(-0.00206875 0 0)
(-0.00208276 0 0)
(-0.00209708 0 0)
(-0.00211172 0 0)
(-0.00212667 0 0)
(-0.00214193 0 0)
(-0.0021575 0 0)
(-0.00217337 0 0)
(-0.00218954 0 0)
(-0.00220601 0 0)
(-0.00222277 0 0)
(-0.00223981 0 0)
(-0.00225713 0 0)
(-0.00227473 0 0)
(-0.00229258 0 0)
(-0.00231069 0 0)
(-0.00232905 0 0)
(-0.00234764 0 0)
(-0.00236645 0 0)
(-0.00238548 0 0)
(-0.00240471 0 0)
(-0.00242412 0 0)
(-0.00244371 0 0)
(-0.00246346 0 0)
(-0.00248334 0 0)
(-0.00250335 0 0)
(-0.00252346 0 0)
(-0.00254366 0 0)
(-0.00256392 0 0)
(-0.00258423 0 0)
(-0.00260456 0 0)
(-0.00262489 0 0)
(-0.00264518 0 0)
(-0.00266543 0 0)
(-0.00268559 0 0)
(-0.00270564 0 0)
(-0.00272555 0 0)
(-0.00274529 0 0)
(-0.00276483 0 0)
(-0.00278412 0 0)
(-0.00280314 0 0)
(-0.00282184 0 0)
(-0.00284019 0 0)
(-0.00285815 0 0)
(-0.00287567 0 0)
(-0.00289271 0 0)
(-0.00290923 0 0)
(-0.00292517 0 0)
(-0.00294049 0 0)
(-0.00295514 0 0)
(-0.00296906 0 0)
(-0.0029822 0 0)
(-0.00299454 0 0)
(-0.00300604 0 0)
(-0.00301652 0 0)
(-0.00302575 0 0)
(-0.00303369 0 0)
(-0.00304036 0 0)
(-0.00304577 0 0)
(-0.00304986 0 0)
(-0.0030525 0 0)
(-0.00305358 0 0)
(-0.00305304 0 0)
(-0.00305069 0 0)
(-0.00304647 0 0)
(-0.00304025 0 0)
(-0.00303187 0 0)
(-0.00302124 0 0)
(-0.00300819 0 0)
(-0.00299259 0 0)
(-0.00297429 0 0)
(-0.00295312 0 0)
(-0.00292892 0 0)
(-0.00290153 0 0)
(-0.00287076 0 0)
(-0.00283645 0 0)
(-0.0027984 0 0)
(-0.00275644 0 0)
(-0.00271038 0 0)
(-0.00266005 0 0)
(-0.00260527 0 0)
(-0.00254588 0 0)
(-0.00248173 0 0)
(-0.00241267 0 0)
(-0.00233872 0 0)
(-0.00226015 0 0)
(-0.0021769 0 0)
(-0.0020856 0 0)
(-0.00197875 0 0)
(-0.00187317 0 0)
)
;

boundaryField
{
    fixedWall
    {
        type            fixedValue;
        value           uniform (0 0 0);
    }
    outlet
    {
        type            pressureInletOutletVelocity;
        value           uniform (-0.00187317 0 0);
    }
    defaultFaces
    {
        type            empty;
    }
}


// ************************************************************************* //
