/*--------------------------------*- C++ -*----------------------------------*\
| =========                 |                                                 |
| \\      /  F ield         | OpenFOAM: The Open Source CFD Toolbox           |
|  \\    /   O peration     | Version:  2406                                  |
|   \\  /    A nd           | Website:  www.openfoam.com                      |
|    \\/     M anipulation  |                                                 |
\*---------------------------------------------------------------------------*/
FoamFile
{
    version     2.0;
    format      ascii;
    arch        "LSB;label=32;scalar=64";
    class       volScalarField;
    location    "12.6";
    object      O2;
}
// * * * * * * * * * * * * * * * * * * * * * * * * * * * * * * * * * * * * * //

dimensions      [0 0 0 0 0 0 0];

internalField   nonuniform List<scalar> 
1000
(
1.05265e-06
1.05112e-06
1.04831e-06
1.04442e-06
1.0396e-06
1.03395e-06
1.02758e-06
1.02057e-06
1.01297e-06
1.00486e-06
9.96274e-07
9.87262e-07
9.77862e-07
9.68109e-07
9.58035e-07
9.47669e-07
9.37038e-07
9.26166e-07
9.15076e-07
9.03788e-07
8.92323e-07
8.80699e-07
8.68933e-07
8.57043e-07
8.45043e-07
8.32948e-07
8.20773e-07
8.08531e-07
7.96236e-07
7.839e-07
7.71536e-07
7.59155e-07
7.46769e-07
7.34389e-07
7.22026e-07
7.09691e-07
6.97394e-07
6.85146e-07
6.72955e-07
6.60832e-07
6.48787e-07
6.36827e-07
6.24961e-07
6.13199e-07
6.01548e-07
5.90016e-07
5.7861e-07
5.67338e-07
5.56205e-07
5.45219e-07
5.34386e-07
5.2371e-07
5.13197e-07
5.02853e-07
4.9268e-07
4.82683e-07
4.72866e-07
4.63232e-07
4.53784e-07
4.44523e-07
4.35452e-07
4.26572e-07
4.17884e-07
4.0939e-07
4.0109e-07
3.92984e-07
3.85072e-07
3.77354e-07
3.69828e-07
3.62493e-07
3.55349e-07
3.48394e-07
3.41627e-07
3.35044e-07
3.28645e-07
3.22426e-07
3.16386e-07
3.10522e-07
3.04831e-07
2.9931e-07
2.93957e-07
2.88767e-07
2.83739e-07
2.78869e-07
2.74153e-07
2.69589e-07
2.65173e-07
2.60902e-07
2.56772e-07
2.52781e-07
2.48924e-07
2.45198e-07
2.416e-07
2.38127e-07
2.34776e-07
2.31542e-07
2.28424e-07
2.25417e-07
2.22518e-07
2.19725e-07
2.17034e-07
2.14442e-07
2.11947e-07
2.09545e-07
2.07233e-07
2.05009e-07
2.02871e-07
2.00814e-07
1.98837e-07
1.96937e-07
1.95112e-07
1.93358e-07
1.91675e-07
1.90059e-07
1.88508e-07
1.87019e-07
1.85592e-07
1.84223e-07
1.82911e-07
1.81654e-07
1.80449e-07
1.79295e-07
1.78191e-07
1.77133e-07
1.76121e-07
1.75153e-07
1.74228e-07
1.73343e-07
1.72498e-07
1.7169e-07
1.70919e-07
1.70183e-07
1.69481e-07
1.68811e-07
1.68173e-07
1.67564e-07
1.66985e-07
1.66433e-07
1.65909e-07
1.65409e-07
1.64935e-07
1.64484e-07
1.64057e-07
1.63651e-07
1.63266e-07
1.62901e-07
1.62556e-07
1.6223e-07
1.61921e-07
1.6163e-07
1.61355e-07
1.61096e-07
1.60852e-07
1.60622e-07
1.60407e-07
1.60205e-07
1.60016e-07
1.59839e-07
1.59674e-07
1.59521e-07
1.59378e-07
1.59246e-07
1.59123e-07
1.5901e-07
1.58906e-07
1.58811e-07
1.58725e-07
1.58646e-07
1.58575e-07
1.58512e-07
1.58455e-07
1.58406e-07
1.58363e-07
1.58325e-07
1.58294e-07
1.58269e-07
1.58248e-07
1.58233e-07
1.58223e-07
1.58218e-07
1.58217e-07
1.5822e-07
1.58228e-07
1.58239e-07
1.58255e-07
1.58274e-07
1.58296e-07
1.58321e-07
1.5835e-07
1.58382e-07
1.58416e-07
1.58454e-07
1.58494e-07
1.58536e-07
1.58581e-07
1.58628e-07
1.58677e-07
1.58728e-07
1.58782e-07
1.58837e-07
1.58894e-07
1.58953e-07
1.59013e-07
1.59075e-07
1.59138e-07
1.59203e-07
1.59269e-07
1.59337e-07
1.59405e-07
1.59475e-07
1.59546e-07
1.59618e-07
1.59691e-07
1.59765e-07
1.5984e-07
1.59916e-07
1.59993e-07
1.6007e-07
1.60149e-07
1.60228e-07
1.60308e-07
1.60388e-07
1.60469e-07
1.60551e-07
1.60633e-07
1.60716e-07
1.60799e-07
1.60883e-07
1.60967e-07
1.61052e-07
1.61137e-07
1.61223e-07
1.61309e-07
1.61395e-07
1.61482e-07
1.61569e-07
1.61657e-07
1.61745e-07
1.61833e-07
1.61921e-07
1.6201e-07
1.62099e-07
1.62188e-07
1.62277e-07
1.62367e-07
1.62457e-07
1.62547e-07
1.62638e-07
1.62728e-07
1.62819e-07
1.6291e-07
1.63001e-07
1.63093e-07
1.63184e-07
1.63276e-07
1.63368e-07
1.6346e-07
1.63552e-07
1.63644e-07
1.63737e-07
1.63829e-07
1.63922e-07
1.64015e-07
1.64108e-07
1.64201e-07
1.64294e-07
1.64388e-07
1.64481e-07
1.64575e-07
1.64668e-07
1.64762e-07
1.64856e-07
1.6495e-07
1.65044e-07
1.65138e-07
1.65233e-07
1.65327e-07
1.65422e-07
1.65516e-07
1.65611e-07
1.65706e-07
1.65801e-07
1.65896e-07
1.65991e-07
1.66086e-07
1.66181e-07
1.66277e-07
1.66372e-07
1.66468e-07
1.66563e-07
1.66659e-07
1.66755e-07
1.66851e-07
1.66947e-07
1.67043e-07
1.67139e-07
1.67235e-07
1.67331e-07
1.67428e-07
1.67524e-07
1.67621e-07
1.67718e-07
1.67814e-07
1.67911e-07
1.68008e-07
1.68105e-07
1.68203e-07
1.683e-07
1.68397e-07
1.68495e-07
1.68592e-07
1.6869e-07
1.68787e-07
1.68885e-07
1.68983e-07
1.69081e-07
1.69179e-07
1.69277e-07
1.69376e-07
1.69474e-07
1.69573e-07
1.69671e-07
1.6977e-07
1.69869e-07
1.69968e-07
1.70067e-07
1.70166e-07
1.70265e-07
1.70364e-07
1.70464e-07
1.70563e-07
1.70663e-07
1.70762e-07
1.70862e-07
1.70962e-07
1.71062e-07
1.71162e-07
1.71263e-07
1.71363e-07
1.71463e-07
1.71564e-07
1.71665e-07
1.71765e-07
1.71866e-07
1.71967e-07
1.72069e-07
1.7217e-07
1.72271e-07
1.72373e-07
1.72474e-07
1.72576e-07
1.72678e-07
1.7278e-07
1.72882e-07
1.72984e-07
1.73086e-07
1.73189e-07
1.73291e-07
1.73394e-07
1.73497e-07
1.736e-07
1.73703e-07
1.73806e-07
1.73909e-07
1.74013e-07
1.74116e-07
1.7422e-07
1.74324e-07
1.74428e-07
1.74532e-07
1.74636e-07
1.7474e-07
1.74844e-07
1.74949e-07
1.75054e-07
1.75159e-07
1.75264e-07
1.75369e-07
1.75474e-07
1.75579e-07
1.75685e-07
1.7579e-07
1.75896e-07
1.76002e-07
1.76108e-07
1.76214e-07
1.7632e-07
1.76427e-07
1.76533e-07
1.7664e-07
1.76747e-07
1.76853e-07
1.76961e-07
1.77068e-07
1.77175e-07
1.77283e-07
1.7739e-07
1.77498e-07
1.77606e-07
1.77714e-07
1.77822e-07
1.7793e-07
1.78039e-07
1.78147e-07
1.78256e-07
1.78365e-07
1.78474e-07
1.78583e-07
1.78692e-07
1.78801e-07
1.78911e-07
1.79021e-07
1.7913e-07
1.7924e-07
1.7935e-07
1.79461e-07
1.79571e-07
1.79681e-07
1.79792e-07
1.79903e-07
1.80014e-07
1.80125e-07
1.80236e-07
1.80347e-07
1.80459e-07
1.8057e-07
1.80682e-07
1.80794e-07
1.80906e-07
1.81018e-07
1.8113e-07
1.81243e-07
1.81355e-07
1.81468e-07
1.81581e-07
1.81694e-07
1.81807e-07
1.81921e-07
1.82034e-07
1.82147e-07
1.82261e-07
1.82375e-07
1.82489e-07
1.82603e-07
1.82717e-07
1.82832e-07
1.82946e-07
1.83061e-07
1.83176e-07
1.83291e-07
1.83406e-07
1.83521e-07
1.83636e-07
1.83752e-07
1.83868e-07
1.83984e-07
1.841e-07
1.84216e-07
1.84332e-07
1.84449e-07
1.84565e-07
1.84682e-07
1.84799e-07
1.84916e-07
1.85033e-07
1.85151e-07
1.85268e-07
1.85386e-07
1.85503e-07
1.85621e-07
1.85739e-07
1.85858e-07
1.85976e-07
1.86095e-07
1.86213e-07
1.86332e-07
1.86451e-07
1.8657e-07
1.8669e-07
1.86809e-07
1.86929e-07
1.87048e-07
1.87168e-07
1.87288e-07
1.87409e-07
1.87529e-07
1.8765e-07
1.8777e-07
1.87891e-07
1.88012e-07
1.88133e-07
1.88255e-07
1.88376e-07
1.88498e-07
1.8862e-07
1.88742e-07
1.88864e-07
1.88986e-07
1.89108e-07
1.89231e-07
1.89354e-07
1.89477e-07
1.896e-07
1.89723e-07
1.89846e-07
1.8997e-07
1.90094e-07
1.90218e-07
1.90342e-07
1.90466e-07
1.9059e-07
1.90715e-07
1.90839e-07
1.90964e-07
1.91089e-07
1.91214e-07
1.9134e-07
1.91465e-07
1.91591e-07
1.91717e-07
1.91843e-07
1.91969e-07
1.92095e-07
1.92222e-07
1.92349e-07
1.92475e-07
1.92602e-07
1.9273e-07
1.92857e-07
1.92984e-07
1.93112e-07
1.9324e-07
1.93368e-07
1.93496e-07
1.93624e-07
1.93753e-07
1.93882e-07
1.9401e-07
1.94139e-07
1.94269e-07
1.94398e-07
1.94528e-07
1.94657e-07
1.94787e-07
1.94917e-07
1.95047e-07
1.95178e-07
1.95308e-07
1.95439e-07
1.9557e-07
1.95701e-07
1.95832e-07
1.95964e-07
1.96095e-07
1.96227e-07
1.96359e-07
1.96491e-07
1.96624e-07
1.96756e-07
1.96889e-07
1.97022e-07
1.97155e-07
1.97288e-07
1.97421e-07
1.97555e-07
1.97688e-07
1.97822e-07
1.97956e-07
1.98091e-07
1.98225e-07
1.9836e-07
1.98495e-07
1.98629e-07
1.98765e-07
1.989e-07
1.99036e-07
1.99171e-07
1.99307e-07
1.99443e-07
1.9958e-07
1.99716e-07
1.99853e-07
1.9999e-07
2.00127e-07
2.00264e-07
2.00401e-07
2.00539e-07
2.00677e-07
2.00815e-07
2.00953e-07
2.01091e-07
2.0123e-07
2.01368e-07
2.01507e-07
2.01646e-07
2.01786e-07
2.01925e-07
2.02065e-07
2.02205e-07
2.02345e-07
2.02485e-07
2.02626e-07
2.02767e-07
2.02907e-07
2.03049e-07
2.0319e-07
2.03331e-07
2.03473e-07
2.03615e-07
2.03757e-07
2.03899e-07
2.04042e-07
2.04184e-07
2.04327e-07
2.04471e-07
2.04614e-07
2.04757e-07
2.04901e-07
2.05045e-07
2.05189e-07
2.05333e-07
2.05478e-07
2.05623e-07
2.05768e-07
2.05913e-07
2.06058e-07
2.06203e-07
2.06348e-07
2.06495e-07
2.06641e-07
2.06787e-07
2.06934e-07
2.07081e-07
2.07228e-07
2.07375e-07
2.07523e-07
2.07671e-07
2.07819e-07
2.07967e-07
2.08115e-07
2.08264e-07
2.08412e-07
2.08561e-07
2.08711e-07
2.0886e-07
2.0901e-07
2.0916e-07
2.0931e-07
2.0946e-07
2.09611e-07
2.09761e-07
2.09912e-07
2.10063e-07
2.10215e-07
2.10366e-07
2.10518e-07
2.1067e-07
2.10823e-07
2.10975e-07
2.11127e-07
2.11279e-07
2.11433e-07
2.11586e-07
2.11739e-07
2.11893e-07
2.12047e-07
2.12201e-07
2.12356e-07
2.1251e-07
2.12665e-07
2.1282e-07
2.12975e-07
2.13131e-07
2.13286e-07
2.13442e-07
2.13599e-07
2.13755e-07
2.13912e-07
2.14068e-07
2.14225e-07
2.14383e-07
2.1454e-07
2.14698e-07
2.14856e-07
2.15014e-07
2.15172e-07
2.15331e-07
2.1549e-07
2.15649e-07
2.15808e-07
2.15968e-07
2.16127e-07
2.16287e-07
2.16448e-07
2.16608e-07
2.16769e-07
2.1693e-07
2.17091e-07
2.17252e-07
2.17414e-07
2.17576e-07
2.17738e-07
2.179e-07
2.18063e-07
2.18226e-07
2.18389e-07
2.18552e-07
2.18715e-07
2.18879e-07
2.19043e-07
2.19207e-07
2.19371e-07
2.19536e-07
2.19701e-07
2.19866e-07
2.20032e-07
2.20197e-07
2.20363e-07
2.2053e-07
2.20696e-07
2.20863e-07
2.2103e-07
2.21197e-07
2.21365e-07
2.21532e-07
2.217e-07
2.21868e-07
2.22036e-07
2.22205e-07
2.22374e-07
2.22544e-07
2.22713e-07
2.22883e-07
2.23053e-07
2.23224e-07
2.23394e-07
2.23565e-07
2.23737e-07
2.23908e-07
2.2408e-07
2.24252e-07
2.24424e-07
2.24597e-07
2.2477e-07
2.24943e-07
2.25117e-07
2.25291e-07
2.25465e-07
2.25639e-07
2.25814e-07
2.25989e-07
2.26165e-07
2.2634e-07
2.26516e-07
2.26693e-07
2.26869e-07
2.27046e-07
2.27224e-07
2.27401e-07
2.27579e-07
2.27758e-07
2.27936e-07
2.28115e-07
2.28295e-07
2.28475e-07
2.28655e-07
2.28835e-07
2.29016e-07
2.29198e-07
2.29379e-07
2.29562e-07
2.29744e-07
2.29927e-07
2.30111e-07
2.30295e-07
2.30479e-07
2.30664e-07
2.3085e-07
2.31036e-07
2.31222e-07
2.31409e-07
2.31597e-07
2.31786e-07
2.31975e-07
2.32164e-07
2.32355e-07
2.32546e-07
2.32738e-07
2.32931e-07
2.33124e-07
2.33319e-07
2.33514e-07
2.33711e-07
2.33908e-07
2.34107e-07
2.34307e-07
2.34508e-07
2.3471e-07
2.34914e-07
2.35119e-07
2.35326e-07
2.35534e-07
2.35744e-07
2.35956e-07
2.3617e-07
2.36386e-07
2.36604e-07
2.36824e-07
2.37047e-07
2.37273e-07
2.37501e-07
2.37732e-07
2.37966e-07
2.38204e-07
2.38445e-07
2.3869e-07
2.38939e-07
2.39192e-07
2.3945e-07
2.39712e-07
2.3998e-07
2.40252e-07
2.40531e-07
2.40816e-07
2.41107e-07
2.41405e-07
2.4171e-07
2.42023e-07
2.42344e-07
2.42673e-07
2.43012e-07
2.43361e-07
2.4372e-07
2.4409e-07
2.44472e-07
2.44865e-07
2.45272e-07
2.45693e-07
2.46128e-07
2.46579e-07
2.47046e-07
2.47531e-07
2.48033e-07
2.48556e-07
2.49098e-07
2.49662e-07
2.50249e-07
2.5086e-07
2.51497e-07
2.5216e-07
2.52852e-07
2.53573e-07
2.54326e-07
2.55113e-07
2.55934e-07
2.56792e-07
2.57689e-07
2.58627e-07
2.59608e-07
2.60635e-07
2.61709e-07
2.62833e-07
2.64009e-07
2.65241e-07
2.66531e-07
2.67882e-07
2.69297e-07
2.70779e-07
2.72332e-07
2.73958e-07
2.75662e-07
2.77447e-07
2.79317e-07
2.81275e-07
2.83327e-07
2.85476e-07
2.87726e-07
2.90083e-07
2.9255e-07
2.95133e-07
2.97838e-07
3.00668e-07
3.0363e-07
3.06729e-07
3.0997e-07
3.1336e-07
3.16905e-07
3.2061e-07
3.24482e-07
3.28528e-07
3.32755e-07
3.37168e-07
3.41775e-07
3.46583e-07
3.51599e-07
3.5683e-07
3.62284e-07
3.67968e-07
3.73889e-07
3.80055e-07
3.86475e-07
3.93154e-07
4.00101e-07
4.07323e-07
4.14828e-07
4.22622e-07
4.30714e-07
4.39109e-07
4.47815e-07
4.56839e-07
4.66185e-07
4.7586e-07
4.85869e-07
4.96218e-07
5.06909e-07
5.17946e-07
5.29333e-07
5.41071e-07
5.53161e-07
5.65603e-07
5.78396e-07
5.91537e-07
6.05024e-07
6.18851e-07
6.33011e-07
6.47496e-07
6.62296e-07
6.774e-07
6.92792e-07
7.08458e-07
7.24379e-07
7.40534e-07
7.56901e-07
7.73453e-07
7.90161e-07
8.06997e-07
8.23924e-07
8.40907e-07
8.57906e-07
8.74879e-07
8.9178e-07
9.08561e-07
9.25171e-07
9.41557e-07
9.57662e-07
9.73428e-07
9.88793e-07
1.00369e-06
1.01807e-06
1.03184e-06
1.04496e-06
1.05734e-06
1.06892e-06
1.07962e-06
1.08938e-06
1.09813e-06
1.1058e-06
1.11232e-06
1.11761e-06
1.12163e-06
1.12429e-06
1.12553e-06
1.12533e-06
1.1236e-06
1.1203e-06
1.11538e-06
1.10879e-06
1.1005e-06
1.09047e-06
1.07866e-06
1.06504e-06
1.04961e-06
1.03233e-06
1.01319e-06
9.92192e-07
9.69331e-07
9.44612e-07
9.18045e-07
8.8965e-07
8.59451e-07
8.27482e-07
7.93785e-07
7.58411e-07
7.2142e-07
6.82886e-07
6.42891e-07
6.01533e-07
5.58925e-07
5.15194e-07
4.70487e-07
4.2497e-07
3.78832e-07
3.32285e-07
2.85571e-07
2.38959e-07
1.92751e-07
1.47283e-07
1.02928e-07
6.00927e-08
1.92185e-08
)
;

boundaryField
{
    fixedWall
    {
        type            zeroGradient;
    }
    outlet
    {
        type            inletOutlet;
        inletValue      uniform 0;
        value           uniform 0;
    }
    defaultFaces
    {
        type            empty;
    }
}


// ************************************************************************* //
