/*--------------------------------*- C++ -*----------------------------------*\
| =========                 |                                                 |
| \\      /  F ield         | OpenFOAM: The Open Source CFD Toolbox           |
|  \\    /   O peration     | Version:  2406                                  |
|   \\  /    A nd           | Website:  www.openfoam.com                      |
|    \\/     M anipulation  |                                                 |
\*---------------------------------------------------------------------------*/
FoamFile
{
    version     2.0;
    format      ascii;
    arch        "LSB;label=32;scalar=64";
    class       volScalarField;
    location    "12.6";
    object      Qdot;
}
// * * * * * * * * * * * * * * * * * * * * * * * * * * * * * * * * * * * * * //

dimensions      [1 -1 -3 0 0 0 0];

internalField   nonuniform List<scalar> 
1000
(
-8.3844e-19
-1.59862e-17
-1.825e-16
-1.39779e-15
3.80442e-09
1.90221e-08
6.12055e-08
1.91812e-07
5.20272e-07
1.27336e-06
2.86255e-06
5.94825e-06
1.15625e-05
2.1191e-05
3.68861e-05
6.13714e-05
9.80854e-05
0.00015125
0.000225861
0.000327668
0.000463103
0.000639169
0.000863303
0.00114321
0.00148665
0.00190128
0.00239439
0.00297276
0.00364241
0.00440845
0.00527493
0.0062447
0.00731934
0.00849905
0.00978267
0.0111677
0.0126502
0.014225
0.0158859
0.0176253
0.019435
0.0213056
0.0232275
0.0251903
0.0271833
0.0291956
0.0312166
0.0332354
0.0352415
0.037225
0.0391761
0.0410859
0.042946
0.0447488
0.0464874
0.0481558
0.0497487
0.0512618
0.0526913
0.0540346
0.0552896
0.056455
0.0575302
0.0585154
0.0594111
0.0602185
0.0609395
0.061576
0.0621307
0.0626064
0.0630062
0.0633335
0.0635918
0.0637848
0.0639162
0.0639899
0.0640097
0.0639793
0.0639027
0.0637835
0.0636253
0.0634318
0.0632063
0.0629521
0.0626725
0.0623703
0.0620485
0.0617098
0.0613567
0.0609917
0.060617
0.0602346
0.0598466
0.0594547
0.0590606
0.0586659
0.0582718
0.0578797
0.0574907
0.0571058
0.056726
0.0563522
0.0559849
0.055625
0.0552728
0.054929
0.054594
0.054268
0.0539513
0.0536443
0.053347
0.0530596
0.0527822
0.0525148
0.0522575
0.0520101
0.0517727
0.0515452
0.0513274
0.0511194
0.0509208
0.0507316
0.0505516
0.0503806
0.0502184
0.0500648
0.0499197
0.0497827
0.0496538
0.0495326
0.0494189
0.0493126
0.0492134
0.049121
0.0490353
0.048956
0.0488829
0.0488158
0.0487545
0.0486987
0.0486483
0.0486031
0.0485628
0.0485273
0.0484963
0.0484698
0.0484474
0.0484291
0.0484146
0.0484039
0.0483967
0.0483928
0.0483922
0.0483947
0.0484001
0.0484084
0.0484193
0.0484328
0.0484487
0.048467
0.0484874
0.0485099
0.0485345
0.0485609
0.0485892
0.0486191
0.0486507
0.0486838
0.0487184
0.0487543
0.0487914
0.04883
0.0488696
0.0489104
0.0489522
0.048995
0.0490388
0.0490834
0.0491289
0.049175
0.049222
0.0492698
0.0493181
0.049367
0.0494166
0.0494667
0.0495175
0.0495688
0.0496205
0.0496727
0.0497251
0.0497781
0.0498314
0.0498851
0.0499391
0.0499934
0.050048
0.0501029
0.050158
0.0502134
0.050269
0.0503249
0.0503809
0.0504372
0.0504936
0.0505502
0.050607
0.0506639
0.050721
0.0507782
0.0508356
0.050893
0.0509507
0.0510084
0.0510663
0.0511242
0.0511823
0.0512405
0.0512988
0.0513571
0.0514156
0.0514742
0.0515328
0.0515915
0.0516504
0.0517093
0.0517682
0.0518273
0.0518864
0.0519457
0.0520049
0.0520643
0.0521238
0.0521833
0.0522429
0.0523025
0.0523623
0.0524221
0.052482
0.0525419
0.0526019
0.052662
0.0527222
0.0527825
0.0528428
0.0529032
0.0529637
0.0530242
0.0530848
0.0531455
0.0532063
0.0532671
0.053328
0.053389
0.0534501
0.0535112
0.0535724
0.0536337
0.0536951
0.0537566
0.0538181
0.0538798
0.0539415
0.0540033
0.0540651
0.0541271
0.0541891
0.0542512
0.0543134
0.0543757
0.0544381
0.0545005
0.054563
0.0546257
0.0546884
0.0547512
0.0548141
0.054877
0.0549401
0.0550032
0.0550665
0.0551298
0.0551933
0.0552566
0.0553202
0.055384
0.0554478
0.0555117
0.0555756
0.0556397
0.0557039
0.0557681
0.0558325
0.0558969
0.0559615
0.0560261
0.0560909
0.0561557
0.0562206
0.0562856
0.0563508
0.056416
0.0564813
0.0565468
0.0566123
0.056678
0.0567437
0.0568096
0.0568755
0.0569416
0.0570078
0.057074
0.0571404
0.0572069
0.0572735
0.0573401
0.0574069
0.0574738
0.0575408
0.057608
0.0576752
0.0577425
0.05781
0.0578776
0.0579453
0.0580131
0.058081
0.058149
0.0582171
0.0582854
0.0583537
0.0584222
0.0584908
0.0585595
0.0586283
0.0586972
0.0587663
0.0588355
0.0589047
0.0589741
0.0590437
0.0591133
0.0591831
0.059253
0.059323
0.0593931
0.0594634
0.0595337
0.0596043
0.0596749
0.0597456
0.0598165
0.0598875
0.0599586
0.0600299
0.0601012
0.0601727
0.0602443
0.0603161
0.060388
0.06046
0.0605322
0.0606045
0.0606769
0.0607492
0.0608219
0.0608947
0.0609677
0.0610407
0.0611139
0.0611872
0.0612607
0.0613343
0.061408
0.0614819
0.0615559
0.06163
0.0617043
0.0617786
0.0618532
0.0619278
0.0620026
0.0620776
0.0621527
0.0622279
0.0623032
0.0623787
0.0624543
0.0625301
0.062606
0.0626821
0.0627583
0.0628346
0.062911
0.0629877
0.0630644
0.0631413
0.0632183
0.0632955
0.0633729
0.0634503
0.0635279
0.0636057
0.0636836
0.0637616
0.0638398
0.0639182
0.0639966
0.0640753
0.0641541
0.064233
0.0643121
0.0643913
0.0644707
0.06455
0.0646297
0.0647092
0.0647892
0.0648693
0.0649496
0.06503
0.0651105
0.0651912
0.065272
0.065353
0.0654342
0.0655155
0.0655969
0.0656785
0.0657602
0.0658421
0.0659242
0.0660064
0.0660887
0.0661713
0.0662539
0.0663367
0.0664197
0.0665028
0.0665861
0.0666695
0.0667531
0.0668368
0.0669207
0.0670047
0.0670889
0.0671733
0.0672578
0.0673425
0.0674274
0.0675124
0.0675975
0.0676829
0.0677684
0.067854
0.0679398
0.0680258
0.0681119
0.0681982
0.0682847
0.0683713
0.0684581
0.0685451
0.0686322
0.0687195
0.068807
0.0688947
0.0689825
0.0690705
0.0691582
0.0692466
0.069335
0.0694237
0.0695125
0.0696015
0.0696906
0.06978
0.0698694
0.0699591
0.0700489
0.070139
0.0702291
0.0703195
0.07041
0.0705007
0.0705916
0.0706826
0.0707739
0.0708653
0.0709569
0.0710486
0.0711405
0.0712327
0.071325
0.0714174
0.0715101
0.0716029
0.0716959
0.0717891
0.0718825
0.0719761
0.0720698
0.0721638
0.0722579
0.0723522
0.0724467
0.0725413
0.0726362
0.0727312
0.0728264
0.0729219
0.0730175
0.0731133
0.0732093
0.0733054
0.0734018
0.0734983
0.073595
0.073692
0.0737891
0.0738864
0.0739839
0.0740816
0.0741795
0.0742776
0.0743759
0.0744743
0.074573
0.0746719
0.074771
0.0748702
0.0749697
0.0750693
0.0751692
0.0752693
0.0753695
0.07547
0.0755705
0.0756714
0.0757724
0.0758737
0.0759752
0.0760768
0.0761787
0.0762807
0.076383
0.0764855
0.0765882
0.076691
0.0767941
0.0768974
0.0770009
0.0771046
0.0772086
0.0773127
0.077417
0.0775215
0.0776263
0.0777313
0.0778365
0.0779418
0.0780475
0.0781533
0.0782593
0.0783656
0.078472
0.0785787
0.0786855
0.0787926
0.0789
0.0790075
0.0791153
0.0792233
0.0793315
0.0794399
0.0795486
0.0796574
0.0797665
0.0798759
0.0799854
0.0800952
0.0802052
0.0803154
0.0804258
0.0805365
0.0806474
0.0807585
0.0808699
0.0809815
0.0810933
0.0812054
0.0813176
0.0814302
0.0815429
0.0816559
0.0817691
0.0818826
0.0819963
0.0821102
0.0822244
0.0823388
0.0824535
0.0825684
0.0826835
0.0827989
0.0829145
0.0830304
0.0831465
0.0832628
0.0833794
0.0834963
0.0836134
0.0837307
0.0838483
0.0839662
0.0840842
0.0842026
0.0843212
0.08444
0.0845591
0.0846785
0.0847981
0.084918
0.0850381
0.0851584
0.0852789
0.0853992
0.0855204
0.0856418
0.0857635
0.0858855
0.0860077
0.0861302
0.0862529
0.086376
0.0864993
0.0866228
0.0867466
0.0868707
0.0869951
0.0871197
0.0872446
0.0873697
0.0874951
0.0876208
0.0877468
0.0878731
0.0879996
0.0881264
0.0882534
0.0883808
0.0885084
0.0886363
0.0887645
0.0888929
0.0890216
0.0891506
0.0892799
0.0894095
0.0895393
0.0896688
0.0897991
0.0899297
0.0900606
0.0901918
0.0903233
0.0904551
0.0905871
0.0907195
0.0908521
0.090985
0.0911183
0.0912518
0.0913856
0.0915196
0.091654
0.0917887
0.0919236
0.0920589
0.0921944
0.0923303
0.0924664
0.0926028
0.0927396
0.0928766
0.0930139
0.0931516
0.0932895
0.0934277
0.0935663
0.0937051
0.0938442
0.0939837
0.0941235
0.0942635
0.0944039
0.0945446
0.0946856
0.0948269
0.0949686
0.0951105
0.0952528
0.0953954
0.0955383
0.0956816
0.0958252
0.0959691
0.0961133
0.0962571
0.0964018
0.0965469
0.0966923
0.096838
0.0969841
0.0971305
0.0972773
0.0974244
0.0975718
0.0977196
0.0978677
0.0980162
0.098165
0.0983141
0.0984636
0.0986131
0.0987625
0.0989129
0.0990637
0.0992148
0.0993663
0.0995181
0.0996702
0.0998228
0.0999756
0.100129
0.100282
0.100436
0.100591
0.100745
0.1009
0.101056
0.101211
0.101367
0.101524
0.101681
0.101838
0.101995
0.102153
0.102312
0.10247
0.102629
0.102789
0.102948
0.103108
0.103269
0.10343
0.103591
0.103753
0.103915
0.104077
0.10424
0.104403
0.104566
0.10473
0.104894
0.105059
0.105224
0.105389
0.105555
0.105721
0.105887
0.106054
0.106221
0.106389
0.106557
0.106725
0.106894
0.107063
0.107232
0.107402
0.107572
0.107743
0.107914
0.108085
0.108257
0.108429
0.108602
0.108775
0.108948
0.109122
0.109296
0.10947
0.109645
0.109821
0.109997
0.110173
0.11035
0.110527
0.110705
0.110883
0.111061
0.111241
0.11142
0.111601
0.111782
0.111963
0.112146
0.112329
0.112512
0.112697
0.112882
0.113068
0.113255
0.113443
0.113632
0.113822
0.114014
0.114206
0.1144
0.114596
0.114793
0.114992
0.115192
0.115394
0.115599
0.115805
0.116014
0.116226
0.11644
0.116658
0.116878
0.117102
0.11733
0.117561
0.117797
0.118037
0.118282
0.118533
0.118789
0.119051
0.11932
0.119595
0.119878
0.120169
0.120468
0.120776
0.121094
0.121422
0.121762
0.122113
0.122476
0.122853
0.123244
0.123651
0.124073
0.124512
0.12497
0.125446
0.125943
0.126462
0.127003
0.127569
0.12816
0.128778
0.129425
0.130102
0.13081
0.131552
0.132329
0.133142
0.133995
0.134888
0.135824
0.136805
0.137832
0.138908
0.140036
0.141216
0.142452
0.143747
0.145101
0.146517
0.147999
0.149547
0.151165
0.152854
0.154617
0.156455
0.158372
0.160368
0.162446
0.164606
0.166851
0.169182
0.171599
0.174102
0.176693
0.179371
0.182135
0.184984
0.187916
0.190929
0.19402
0.197185
0.200419
0.203717
0.207071
0.210475
0.21392
0.217395
0.22089
0.224391
0.227884
0.231354
0.234784
0.238155
0.241447
0.244637
0.247702
0.250616
0.253354
0.255887
0.258185
0.260219
0.261955
0.263362
0.264408
0.265059
0.265282
0.265047
0.264322
0.263078
0.261288
0.258929
0.25598
0.252425
0.248251
0.243453
0.23803
0.231989
0.225341
0.218108
0.210317
0.202005
0.193213
0.183994
0.174405
0.164511
0.154382
0.144095
0.133728
0.123363
0.113083
0.10297
0.0931024
0.0835577
0.0744056
0.0657092
0.0575233
0.0498927
0.042852
0.0364647
0.0307111
0.0255222
0.0209488
0.0169696
0.0135543
0.0106652
0.00825855
0.00628621
0.00469777
0.00344213
0.00246918
0.00173125
0.00118431
0.000788884
0.000510561
0.000320266
0.000194192
0.000113478
6.36904e-05
3.42081e-05
1.75073e-05
8.49798e-06
3.89191e-06
1.67152e-06
6.68546e-07
2.47467e-07
8.37549e-08
2.54694e-08
6.9617e-09
1.90221e-09
2.37776e-10
2.37677e-10
9.96615e-14
-2.40353e-18
1.18888e-10
-6.987e-21
-3.27763e-11
0
)
;

boundaryField
{
    fixedWall
    {
        type            calculated;
        value           uniform 0;
    }
    outlet
    {
        type            calculated;
        value           uniform 0;
    }
    defaultFaces
    {
        type            empty;
    }
}


// ************************************************************************* //
