/*--------------------------------*- C++ -*----------------------------------*\
| =========                 |                                                 |
| \\      /  F ield         | OpenFOAM: The Open Source CFD Toolbox           |
|  \\    /   O peration     | Version:  2406                                  |
|   \\  /    A nd           | Website:  www.openfoam.com                      |
|    \\/     M anipulation  |                                                 |
\*---------------------------------------------------------------------------*/
FoamFile
{
    version     2.0;
    format      ascii;
    arch        "LSB;label=32;scalar=64";
    class       volScalarField;
    location    "10";
    object      O2;
}
// * * * * * * * * * * * * * * * * * * * * * * * * * * * * * * * * * * * * * //

dimensions      [0 0 0 0 0 0 0];

internalField   nonuniform List<scalar> 
1000
(
1.15665e-06
1.15469e-06
1.15113e-06
1.14623e-06
1.14019e-06
1.13316e-06
1.12526e-06
1.11659e-06
1.10724e-06
1.09727e-06
1.08675e-06
1.07573e-06
1.06427e-06
1.0524e-06
1.04016e-06
1.0276e-06
1.01473e-06
1.0016e-06
9.88231e-07
9.74646e-07
9.60871e-07
9.4693e-07
9.32843e-07
9.18633e-07
9.04317e-07
8.89917e-07
8.75449e-07
8.60931e-07
8.46381e-07
8.31814e-07
8.17248e-07
8.02698e-07
7.88179e-07
7.73706e-07
7.59294e-07
7.44956e-07
7.30707e-07
7.1656e-07
7.02528e-07
6.88623e-07
6.74858e-07
6.61243e-07
6.47789e-07
6.34508e-07
6.21409e-07
6.08501e-07
5.95792e-07
5.83291e-07
5.71004e-07
5.5894e-07
5.47103e-07
5.35498e-07
5.24132e-07
5.13006e-07
5.02126e-07
4.91494e-07
4.81112e-07
4.70982e-07
4.61104e-07
4.5148e-07
4.42108e-07
4.3299e-07
4.24123e-07
4.15506e-07
4.07138e-07
3.99017e-07
3.91139e-07
3.83502e-07
3.76103e-07
3.68938e-07
3.62004e-07
3.55297e-07
3.48813e-07
3.42547e-07
3.36495e-07
3.30653e-07
3.25016e-07
3.19579e-07
3.14338e-07
3.09288e-07
3.04424e-07
2.99741e-07
2.95234e-07
2.90898e-07
2.8673e-07
2.82723e-07
2.78873e-07
2.75175e-07
2.71626e-07
2.68219e-07
2.64951e-07
2.61817e-07
2.58813e-07
2.55934e-07
2.53177e-07
2.50537e-07
2.4801e-07
2.45592e-07
2.4328e-07
2.41069e-07
2.38956e-07
2.36938e-07
2.3501e-07
2.3317e-07
2.31415e-07
2.2974e-07
2.28144e-07
2.26623e-07
2.25174e-07
2.23794e-07
2.22481e-07
2.21233e-07
2.20045e-07
2.18917e-07
2.17846e-07
2.16828e-07
2.15864e-07
2.14949e-07
2.14082e-07
2.13261e-07
2.12484e-07
2.1175e-07
2.11056e-07
2.10401e-07
2.09783e-07
2.092e-07
2.08652e-07
2.08136e-07
2.07651e-07
2.07196e-07
2.0677e-07
2.06371e-07
2.05998e-07
2.05649e-07
2.05325e-07
2.05023e-07
2.04743e-07
2.04484e-07
2.04244e-07
2.04024e-07
2.03821e-07
2.03636e-07
2.03467e-07
2.03314e-07
2.03176e-07
2.03052e-07
2.02942e-07
2.02844e-07
2.02759e-07
2.02686e-07
2.02624e-07
2.02573e-07
2.02532e-07
2.025e-07
2.02478e-07
2.02465e-07
2.0246e-07
2.02463e-07
2.02473e-07
2.02491e-07
2.02516e-07
2.02547e-07
2.02584e-07
2.02628e-07
2.02676e-07
2.02731e-07
2.0279e-07
2.02854e-07
2.02923e-07
2.02997e-07
2.03074e-07
2.03155e-07
2.0324e-07
2.03329e-07
2.03421e-07
2.03516e-07
2.03615e-07
2.03716e-07
2.0382e-07
2.03927e-07
2.04036e-07
2.04148e-07
2.04261e-07
2.04377e-07
2.04495e-07
2.04615e-07
2.04737e-07
2.04861e-07
2.04986e-07
2.05113e-07
2.05241e-07
2.05371e-07
2.05502e-07
2.05634e-07
2.05767e-07
2.05902e-07
2.06038e-07
2.06175e-07
2.06313e-07
2.06452e-07
2.06592e-07
2.06733e-07
2.06874e-07
2.07017e-07
2.0716e-07
2.07304e-07
2.07448e-07
2.07594e-07
2.0774e-07
2.07886e-07
2.08033e-07
2.08181e-07
2.08329e-07
2.08478e-07
2.08627e-07
2.08777e-07
2.08927e-07
2.09077e-07
2.09228e-07
2.0938e-07
2.09532e-07
2.09684e-07
2.09836e-07
2.09989e-07
2.10143e-07
2.10296e-07
2.1045e-07
2.10605e-07
2.10759e-07
2.10914e-07
2.11069e-07
2.11225e-07
2.11381e-07
2.11537e-07
2.11693e-07
2.1185e-07
2.12006e-07
2.12163e-07
2.1232e-07
2.12478e-07
2.12636e-07
2.12794e-07
2.12952e-07
2.13111e-07
2.1327e-07
2.13429e-07
2.13588e-07
2.13748e-07
2.13907e-07
2.14067e-07
2.14227e-07
2.14388e-07
2.14548e-07
2.14709e-07
2.1487e-07
2.15031e-07
2.15192e-07
2.15354e-07
2.15516e-07
2.15678e-07
2.1584e-07
2.16002e-07
2.16165e-07
2.16327e-07
2.1649e-07
2.16653e-07
2.16817e-07
2.1698e-07
2.17144e-07
2.17308e-07
2.17472e-07
2.17636e-07
2.17801e-07
2.17966e-07
2.1813e-07
2.18296e-07
2.18461e-07
2.18626e-07
2.18792e-07
2.18958e-07
2.19124e-07
2.1929e-07
2.19457e-07
2.19623e-07
2.1979e-07
2.19957e-07
2.20125e-07
2.20292e-07
2.2046e-07
2.20628e-07
2.20796e-07
2.20964e-07
2.21133e-07
2.21301e-07
2.2147e-07
2.21639e-07
2.21809e-07
2.21978e-07
2.22148e-07
2.22318e-07
2.22487e-07
2.22657e-07
2.22828e-07
2.22999e-07
2.2317e-07
2.23341e-07
2.23513e-07
2.23684e-07
2.23856e-07
2.24028e-07
2.24201e-07
2.24373e-07
2.24546e-07
2.24719e-07
2.24893e-07
2.25066e-07
2.2524e-07
2.25414e-07
2.25588e-07
2.25763e-07
2.25938e-07
2.26113e-07
2.26288e-07
2.26463e-07
2.26639e-07
2.26815e-07
2.26991e-07
2.27167e-07
2.27344e-07
2.27521e-07
2.27698e-07
2.27876e-07
2.28053e-07
2.28231e-07
2.2841e-07
2.28588e-07
2.28767e-07
2.28946e-07
2.29125e-07
2.29305e-07
2.29485e-07
2.29665e-07
2.29845e-07
2.30026e-07
2.30207e-07
2.30388e-07
2.30569e-07
2.30751e-07
2.30933e-07
2.31115e-07
2.31298e-07
2.31481e-07
2.31664e-07
2.31847e-07
2.32031e-07
2.32215e-07
2.324e-07
2.32584e-07
2.32769e-07
2.32954e-07
2.3314e-07
2.33326e-07
2.33512e-07
2.33698e-07
2.33885e-07
2.34072e-07
2.3426e-07
2.34447e-07
2.34635e-07
2.34824e-07
2.35012e-07
2.35201e-07
2.3539e-07
2.3558e-07
2.3577e-07
2.3596e-07
2.36151e-07
2.36342e-07
2.36533e-07
2.36724e-07
2.36916e-07
2.37108e-07
2.37301e-07
2.37493e-07
2.37687e-07
2.3788e-07
2.38074e-07
2.38268e-07
2.38462e-07
2.38657e-07
2.38852e-07
2.39048e-07
2.39244e-07
2.3944e-07
2.39636e-07
2.39833e-07
2.4003e-07
2.40227e-07
2.40425e-07
2.40623e-07
2.40822e-07
2.41021e-07
2.4122e-07
2.41419e-07
2.41619e-07
2.41819e-07
2.4202e-07
2.42221e-07
2.42422e-07
2.42623e-07
2.42825e-07
2.43027e-07
2.4323e-07
2.43433e-07
2.43636e-07
2.43839e-07
2.44043e-07
2.44248e-07
2.44452e-07
2.44657e-07
2.44862e-07
2.45068e-07
2.45274e-07
2.4548e-07
2.45687e-07
2.45894e-07
2.46101e-07
2.46309e-07
2.46517e-07
2.46725e-07
2.46934e-07
2.47143e-07
2.47353e-07
2.47563e-07
2.47773e-07
2.47983e-07
2.48194e-07
2.48405e-07
2.48617e-07
2.48829e-07
2.49041e-07
2.49254e-07
2.49467e-07
2.4968e-07
2.49894e-07
2.50108e-07
2.50322e-07
2.50537e-07
2.50752e-07
2.50968e-07
2.51184e-07
2.514e-07
2.51616e-07
2.51833e-07
2.52051e-07
2.52269e-07
2.52487e-07
2.52705e-07
2.52924e-07
2.53143e-07
2.53363e-07
2.53583e-07
2.53803e-07
2.54024e-07
2.54245e-07
2.54467e-07
2.54688e-07
2.54911e-07
2.55133e-07
2.55356e-07
2.5558e-07
2.55804e-07
2.56028e-07
2.56253e-07
2.56478e-07
2.56703e-07
2.56929e-07
2.57155e-07
2.57382e-07
2.57609e-07
2.57836e-07
2.58064e-07
2.58292e-07
2.58521e-07
2.5875e-07
2.58979e-07
2.59209e-07
2.59439e-07
2.5967e-07
2.59901e-07
2.60132e-07
2.60364e-07
2.60597e-07
2.60829e-07
2.61063e-07
2.61296e-07
2.6153e-07
2.61765e-07
2.61999e-07
2.62235e-07
2.6247e-07
2.62707e-07
2.62943e-07
2.6318e-07
2.63418e-07
2.63655e-07
2.63894e-07
2.64132e-07
2.64372e-07
2.64611e-07
2.64851e-07
2.65092e-07
2.65333e-07
2.65574e-07
2.65816e-07
2.66058e-07
2.66301e-07
2.66544e-07
2.66788e-07
2.67032e-07
2.67276e-07
2.67521e-07
2.67766e-07
2.68012e-07
2.68259e-07
2.68505e-07
2.68753e-07
2.69e-07
2.69248e-07
2.69497e-07
2.69746e-07
2.69996e-07
2.70246e-07
2.70496e-07
2.70747e-07
2.70998e-07
2.7125e-07
2.71502e-07
2.71755e-07
2.72008e-07
2.72262e-07
2.72516e-07
2.72771e-07
2.73026e-07
2.73282e-07
2.73538e-07
2.73794e-07
2.74051e-07
2.74309e-07
2.74567e-07
2.74825e-07
2.75084e-07
2.75343e-07
2.75603e-07
2.75864e-07
2.76124e-07
2.76386e-07
2.76648e-07
2.7691e-07
2.77173e-07
2.77436e-07
2.777e-07
2.77964e-07
2.78229e-07
2.78494e-07
2.7876e-07
2.79026e-07
2.79293e-07
2.7956e-07
2.79828e-07
2.80096e-07
2.80365e-07
2.80634e-07
2.80904e-07
2.81174e-07
2.81445e-07
2.81716e-07
2.81988e-07
2.8226e-07
2.82533e-07
2.82807e-07
2.83081e-07
2.83355e-07
2.8363e-07
2.83905e-07
2.84182e-07
2.84458e-07
2.84735e-07
2.85013e-07
2.85291e-07
2.8557e-07
2.85849e-07
2.86129e-07
2.86409e-07
2.8669e-07
2.86971e-07
2.87253e-07
2.87536e-07
2.87819e-07
2.88103e-07
2.88387e-07
2.88672e-07
2.88957e-07
2.89243e-07
2.8953e-07
2.89817e-07
2.90104e-07
2.90393e-07
2.90681e-07
2.90971e-07
2.91261e-07
2.91551e-07
2.91842e-07
2.92134e-07
2.92427e-07
2.9272e-07
2.93013e-07
2.93307e-07
2.93602e-07
2.93897e-07
2.94193e-07
2.9449e-07
2.94787e-07
2.95084e-07
2.95381e-07
2.9568e-07
2.9598e-07
2.9628e-07
2.96581e-07
2.96883e-07
2.97185e-07
2.97488e-07
2.97791e-07
2.98095e-07
2.984e-07
2.98705e-07
2.99011e-07
2.99318e-07
2.99625e-07
2.99933e-07
3.00242e-07
3.00551e-07
3.00861e-07
3.01171e-07
3.01482e-07
3.01794e-07
3.02107e-07
3.0242e-07
3.02734e-07
3.03048e-07
3.03363e-07
3.03679e-07
3.03996e-07
3.04313e-07
3.04631e-07
3.04949e-07
3.05268e-07
3.05588e-07
3.05909e-07
3.0623e-07
3.06552e-07
3.06874e-07
3.07197e-07
3.07521e-07
3.07846e-07
3.08171e-07
3.08497e-07
3.08824e-07
3.09151e-07
3.09479e-07
3.09808e-07
3.10137e-07
3.10467e-07
3.10798e-07
3.11129e-07
3.11462e-07
3.11794e-07
3.12128e-07
3.12462e-07
3.12797e-07
3.13133e-07
3.13469e-07
3.13805e-07
3.1414e-07
3.14479e-07
3.14818e-07
3.15158e-07
3.15498e-07
3.15839e-07
3.16181e-07
3.16524e-07
3.16867e-07
3.17211e-07
3.17556e-07
3.17901e-07
3.18247e-07
3.18594e-07
3.18941e-07
3.1929e-07
3.19639e-07
3.19988e-07
3.20339e-07
3.2069e-07
3.21042e-07
3.21395e-07
3.21748e-07
3.22102e-07
3.22457e-07
3.22813e-07
3.23169e-07
3.23526e-07
3.23884e-07
3.24243e-07
3.24602e-07
3.24963e-07
3.25324e-07
3.25685e-07
3.26048e-07
3.26411e-07
3.26776e-07
3.2714e-07
3.27506e-07
3.27873e-07
3.2824e-07
3.28608e-07
3.28977e-07
3.29347e-07
3.29718e-07
3.3009e-07
3.30462e-07
3.30835e-07
3.31209e-07
3.31584e-07
3.3196e-07
3.32337e-07
3.32714e-07
3.33093e-07
3.33472e-07
3.33852e-07
3.34233e-07
3.34615e-07
3.34998e-07
3.35382e-07
3.35767e-07
3.36153e-07
3.36539e-07
3.36927e-07
3.37315e-07
3.37705e-07
3.38095e-07
3.38486e-07
3.38876e-07
3.39269e-07
3.39663e-07
3.40059e-07
3.40455e-07
3.40852e-07
3.4125e-07
3.41649e-07
3.42049e-07
3.4245e-07
3.42852e-07
3.43255e-07
3.43659e-07
3.44064e-07
3.44471e-07
3.44878e-07
3.45286e-07
3.45695e-07
3.46105e-07
3.46517e-07
3.46929e-07
3.47342e-07
3.47757e-07
3.48172e-07
3.48589e-07
3.49006e-07
3.49422e-07
3.49842e-07
3.50262e-07
3.50683e-07
3.51106e-07
3.51529e-07
3.51954e-07
3.52379e-07
3.52806e-07
3.53233e-07
3.53662e-07
3.54092e-07
3.54523e-07
3.54954e-07
3.55387e-07
3.55821e-07
3.56256e-07
3.56692e-07
3.57129e-07
3.57567e-07
3.58007e-07
3.58447e-07
3.58888e-07
3.59331e-07
3.59774e-07
3.60219e-07
3.60664e-07
3.61111e-07
3.61559e-07
3.62008e-07
3.62458e-07
3.6291e-07
3.63362e-07
3.63816e-07
3.6427e-07
3.64726e-07
3.65183e-07
3.65642e-07
3.66101e-07
3.66562e-07
3.67024e-07
3.67487e-07
3.67952e-07
3.68418e-07
3.68886e-07
3.69355e-07
3.69825e-07
3.70297e-07
3.7077e-07
3.71245e-07
3.71722e-07
3.722e-07
3.7268e-07
3.73162e-07
3.73646e-07
3.74131e-07
3.74619e-07
3.75109e-07
3.75602e-07
3.76097e-07
3.76594e-07
3.77094e-07
3.77597e-07
3.78103e-07
3.78612e-07
3.79124e-07
3.7964e-07
3.8016e-07
3.80683e-07
3.81211e-07
3.81744e-07
3.82282e-07
3.82825e-07
3.83374e-07
3.83929e-07
3.8449e-07
3.85058e-07
3.85634e-07
3.86218e-07
3.86811e-07
3.87414e-07
3.88026e-07
3.88649e-07
3.89284e-07
3.89932e-07
3.90593e-07
3.91269e-07
3.91961e-07
3.92669e-07
3.93396e-07
3.94143e-07
3.94911e-07
3.95702e-07
3.96517e-07
3.97359e-07
3.9823e-07
3.99131e-07
4.00065e-07
4.01035e-07
4.02043e-07
4.03091e-07
4.04184e-07
4.05324e-07
4.06514e-07
4.07759e-07
4.09062e-07
4.10428e-07
4.1186e-07
4.13365e-07
4.14945e-07
4.16608e-07
4.18358e-07
4.20203e-07
4.22147e-07
4.24198e-07
4.26363e-07
4.2865e-07
4.31066e-07
4.3362e-07
4.36322e-07
4.3918e-07
4.42204e-07
4.45405e-07
4.48793e-07
4.52381e-07
4.56181e-07
4.60204e-07
4.64465e-07
4.68977e-07
4.73755e-07
4.78813e-07
4.84169e-07
4.89837e-07
4.95836e-07
5.02183e-07
5.08896e-07
5.15995e-07
5.23498e-07
5.31427e-07
5.39801e-07
5.48643e-07
5.57974e-07
5.67817e-07
5.78193e-07
5.89126e-07
6.00639e-07
6.12756e-07
6.25499e-07
6.38893e-07
6.52959e-07
6.6772e-07
6.83199e-07
6.99417e-07
7.16393e-07
7.34146e-07
7.52695e-07
7.72053e-07
7.92234e-07
8.13248e-07
8.35104e-07
8.57804e-07
8.8135e-07
9.05737e-07
9.30955e-07
9.56989e-07
9.8382e-07
1.01142e-06
1.03975e-06
1.06877e-06
1.09844e-06
1.12868e-06
1.15943e-06
1.1906e-06
1.22212e-06
1.25387e-06
1.28574e-06
1.31761e-06
1.34933e-06
1.38077e-06
1.41175e-06
1.44211e-06
1.47167e-06
1.50022e-06
1.52758e-06
1.55353e-06
1.57786e-06
1.60035e-06
1.62076e-06
1.63888e-06
1.65449e-06
1.66734e-06
1.67724e-06
1.68395e-06
1.68724e-06
1.687e-06
1.68298e-06
1.67503e-06
1.66298e-06
1.64669e-06
1.62604e-06
1.6009e-06
1.5712e-06
1.53686e-06
1.49782e-06
1.45407e-06
1.4056e-06
1.35242e-06
1.2946e-06
1.2322e-06
1.16534e-06
1.09417e-06
1.01888e-06
9.39716e-07
8.56967e-07
7.7099e-07
6.82215e-07
5.91157e-07
4.98433e-07
4.04776e-07
3.11058e-07
2.18314e-07
1.27761e-07
4.08246e-08
)
;

boundaryField
{
    fixedWall
    {
        type            zeroGradient;
    }
    outlet
    {
        type            inletOutlet;
        inletValue      uniform 0;
        value           uniform 0;
    }
    defaultFaces
    {
        type            empty;
    }
}


// ************************************************************************* //
