/*--------------------------------*- C++ -*----------------------------------*\
| =========                 |                                                 |
| \\      /  F ield         | OpenFOAM: The Open Source CFD Toolbox           |
|  \\    /   O peration     | Version:  2406                                  |
|   \\  /    A nd           | Website:  www.openfoam.com                      |
|    \\/     M anipulation  |                                                 |
\*---------------------------------------------------------------------------*/
FoamFile
{
    version     2.0;
    format      ascii;
    arch        "LSB;label=32;scalar=64";
    class       surfaceScalarField;
    location    "10";
    object      phi;
}
// * * * * * * * * * * * * * * * * * * * * * * * * * * * * * * * * * * * * * //

dimensions      [1 0 -1 0 0 0 0];

oriented        oriented;

internalField   nonuniform List<scalar> 
999
(
-1.8426e-08
-6.1232e-08
-1.19187e-07
-1.86791e-07
-2.60588e-07
-3.38321e-07
-4.18481e-07
-5.00028e-07
-5.82226e-07
-6.64572e-07
-7.46684e-07
-8.283e-07
-9.09224e-07
-9.89319e-07
-1.06848e-06
-1.14663e-06
-1.22373e-06
-1.29974e-06
-1.37463e-06
-1.4484e-06
-1.52104e-06
-1.59254e-06
-1.66292e-06
-1.73217e-06
-1.80031e-06
-1.86734e-06
-1.93329e-06
-1.99815e-06
-2.06195e-06
-2.1247e-06
-2.18641e-06
-2.24709e-06
-2.30676e-06
-2.36544e-06
-2.42313e-06
-2.47985e-06
-2.53562e-06
-2.59045e-06
-2.64434e-06
-2.69731e-06
-2.74938e-06
-2.80056e-06
-2.85085e-06
-2.90028e-06
-2.94884e-06
-2.99656e-06
-3.04344e-06
-3.08949e-06
-3.13473e-06
-3.17916e-06
-3.2228e-06
-3.26565e-06
-3.30772e-06
-3.34903e-06
-3.38958e-06
-3.42938e-06
-3.46844e-06
-3.50678e-06
-3.54439e-06
-3.58129e-06
-3.61749e-06
-3.653e-06
-3.68781e-06
-3.72195e-06
-3.75542e-06
-3.78823e-06
-3.82039e-06
-3.8519e-06
-3.88278e-06
-3.91302e-06
-3.94265e-06
-3.97167e-06
-4.00008e-06
-4.02789e-06
-4.05511e-06
-4.08176e-06
-4.10783e-06
-4.13333e-06
-4.15828e-06
-4.18268e-06
-4.20653e-06
-4.22986e-06
-4.25265e-06
-4.27492e-06
-4.29669e-06
-4.31794e-06
-4.3387e-06
-4.35898e-06
-4.37877e-06
-4.39808e-06
-4.41693e-06
-4.43532e-06
-4.45326e-06
-4.47075e-06
-4.48781e-06
-4.50443e-06
-4.52063e-06
-4.53642e-06
-4.5518e-06
-4.56678e-06
-4.58136e-06
-4.59556e-06
-4.60937e-06
-4.62282e-06
-4.6359e-06
-4.64862e-06
-4.66098e-06
-4.67301e-06
-4.68469e-06
-4.69605e-06
-4.70708e-06
-4.71779e-06
-4.72819e-06
-4.73828e-06
-4.74808e-06
-4.75759e-06
-4.76681e-06
-4.77575e-06
-4.78442e-06
-4.79282e-06
-4.80096e-06
-4.80885e-06
-4.81649e-06
-4.82388e-06
-4.83104e-06
-4.83797e-06
-4.84468e-06
-4.85116e-06
-4.85743e-06
-4.86349e-06
-4.86935e-06
-4.87501e-06
-4.88048e-06
-4.88576e-06
-4.89086e-06
-4.89579e-06
-4.90054e-06
-4.90512e-06
-4.90954e-06
-4.9138e-06
-4.91791e-06
-4.92187e-06
-4.92568e-06
-4.92936e-06
-4.9329e-06
-4.9363e-06
-4.93958e-06
-4.94273e-06
-4.94575e-06
-4.94865e-06
-4.95145e-06
-4.95417e-06
-4.95677e-06
-4.95927e-06
-4.96164e-06
-4.96392e-06
-4.96612e-06
-4.96824e-06
-4.97027e-06
-4.97222e-06
-4.97408e-06
-4.97587e-06
-4.97759e-06
-4.97923e-06
-4.98079e-06
-4.98229e-06
-4.98373e-06
-4.98511e-06
-4.98643e-06
-4.98769e-06
-4.98889e-06
-4.99005e-06
-4.99115e-06
-4.9922e-06
-4.99321e-06
-4.99417e-06
-4.99509e-06
-4.99597e-06
-4.9968e-06
-4.9976e-06
-4.99836e-06
-4.99908e-06
-4.99977e-06
-5.00043e-06
-5.00105e-06
-5.00165e-06
-5.00222e-06
-5.00276e-06
-5.00327e-06
-5.00376e-06
-5.00423e-06
-5.00467e-06
-5.00509e-06
-5.00549e-06
-5.00587e-06
-5.00623e-06
-5.00658e-06
-5.0069e-06
-5.00721e-06
-5.0075e-06
-5.00778e-06
-5.00804e-06
-5.00829e-06
-5.00853e-06
-5.00875e-06
-5.00897e-06
-5.00917e-06
-5.00936e-06
-5.00954e-06
-5.0097e-06
-5.00987e-06
-5.01002e-06
-5.01016e-06
-5.0103e-06
-5.01042e-06
-5.01055e-06
-5.01066e-06
-5.01077e-06
-5.01087e-06
-5.01096e-06
-5.01105e-06
-5.01114e-06
-5.01122e-06
-5.01129e-06
-5.01136e-06
-5.01143e-06
-5.01149e-06
-5.01155e-06
-5.0116e-06
-5.01165e-06
-5.0117e-06
-5.01175e-06
-5.01179e-06
-5.01183e-06
-5.01186e-06
-5.0119e-06
-5.01193e-06
-5.01196e-06
-5.01199e-06
-5.01201e-06
-5.01203e-06
-5.01206e-06
-5.01208e-06
-5.01209e-06
-5.01211e-06
-5.01212e-06
-5.01214e-06
-5.01215e-06
-5.01216e-06
-5.01217e-06
-5.01218e-06
-5.01219e-06
-5.0122e-06
-5.0122e-06
-5.01221e-06
-5.01221e-06
-5.01221e-06
-5.01222e-06
-5.01222e-06
-5.01222e-06
-5.01222e-06
-5.01222e-06
-5.01222e-06
-5.01222e-06
-5.01222e-06
-5.01222e-06
-5.01222e-06
-5.01222e-06
-5.01221e-06
-5.01221e-06
-5.01221e-06
-5.0122e-06
-5.0122e-06
-5.01219e-06
-5.01219e-06
-5.01218e-06
-5.01218e-06
-5.01217e-06
-5.01217e-06
-5.01216e-06
-5.01215e-06
-5.01215e-06
-5.01214e-06
-5.01213e-06
-5.01213e-06
-5.01212e-06
-5.01211e-06
-5.01211e-06
-5.0121e-06
-5.01209e-06
-5.01209e-06
-5.01208e-06
-5.01207e-06
-5.01206e-06
-5.01206e-06
-5.01205e-06
-5.01204e-06
-5.01204e-06
-5.01203e-06
-5.01202e-06
-5.01201e-06
-5.012e-06
-5.012e-06
-5.01199e-06
-5.01198e-06
-5.01197e-06
-5.01197e-06
-5.01196e-06
-5.01195e-06
-5.01195e-06
-5.01194e-06
-5.01193e-06
-5.01193e-06
-5.01192e-06
-5.01191e-06
-5.01191e-06
-5.0119e-06
-5.01189e-06
-5.01189e-06
-5.01188e-06
-5.01188e-06
-5.01187e-06
-5.01186e-06
-5.01186e-06
-5.01185e-06
-5.01185e-06
-5.01184e-06
-5.01184e-06
-5.01183e-06
-5.01183e-06
-5.01182e-06
-5.01182e-06
-5.01181e-06
-5.01181e-06
-5.01181e-06
-5.0118e-06
-5.0118e-06
-5.0118e-06
-5.01179e-06
-5.01179e-06
-5.01179e-06
-5.01178e-06
-5.01178e-06
-5.01178e-06
-5.01178e-06
-5.01177e-06
-5.01177e-06
-5.01177e-06
-5.01177e-06
-5.01176e-06
-5.01176e-06
-5.01176e-06
-5.01176e-06
-5.01176e-06
-5.01176e-06
-5.01175e-06
-5.01175e-06
-5.01175e-06
-5.01175e-06
-5.01175e-06
-5.01175e-06
-5.01175e-06
-5.01175e-06
-5.01175e-06
-5.01175e-06
-5.01175e-06
-5.01175e-06
-5.01175e-06
-5.01175e-06
-5.01175e-06
-5.01175e-06
-5.01175e-06
-5.01175e-06
-5.01175e-06
-5.01175e-06
-5.01175e-06
-5.01175e-06
-5.01176e-06
-5.01176e-06
-5.01176e-06
-5.01176e-06
-5.01176e-06
-5.01176e-06
-5.01176e-06
-5.01176e-06
-5.01176e-06
-5.01177e-06
-5.01177e-06
-5.01177e-06
-5.01177e-06
-5.01177e-06
-5.01177e-06
-5.01177e-06
-5.01178e-06
-5.01178e-06
-5.01178e-06
-5.01178e-06
-5.01178e-06
-5.01178e-06
-5.01179e-06
-5.01179e-06
-5.01179e-06
-5.01179e-06
-5.01179e-06
-5.01179e-06
-5.01179e-06
-5.01179e-06
-5.01179e-06
-5.01179e-06
-5.01179e-06
-5.0118e-06
-5.0118e-06
-5.0118e-06
-5.0118e-06
-5.0118e-06
-5.0118e-06
-5.0118e-06
-5.0118e-06
-5.0118e-06
-5.0118e-06
-5.0118e-06
-5.0118e-06
-5.0118e-06
-5.0118e-06
-5.0118e-06
-5.0118e-06
-5.0118e-06
-5.0118e-06
-5.0118e-06
-5.0118e-06
-5.0118e-06
-5.0118e-06
-5.0118e-06
-5.0118e-06
-5.0118e-06
-5.0118e-06
-5.0118e-06
-5.0118e-06
-5.0118e-06
-5.0118e-06
-5.0118e-06
-5.0118e-06
-5.0118e-06
-5.0118e-06
-5.0118e-06
-5.01179e-06
-5.01179e-06
-5.01179e-06
-5.01179e-06
-5.01179e-06
-5.01179e-06
-5.01179e-06
-5.01179e-06
-5.01179e-06
-5.01179e-06
-5.01179e-06
-5.01179e-06
-5.01179e-06
-5.01178e-06
-5.01178e-06
-5.01178e-06
-5.01178e-06
-5.01178e-06
-5.01178e-06
-5.01178e-06
-5.01178e-06
-5.01178e-06
-5.01178e-06
-5.01178e-06
-5.01178e-06
-5.01177e-06
-5.01177e-06
-5.01178e-06
-5.01177e-06
-5.01177e-06
-5.01177e-06
-5.01177e-06
-5.01177e-06
-5.01177e-06
-5.01177e-06
-5.01177e-06
-5.01177e-06
-5.01177e-06
-5.01177e-06
-5.01177e-06
-5.01177e-06
-5.01177e-06
-5.01177e-06
-5.01177e-06
-5.01177e-06
-5.01177e-06
-5.01177e-06
-5.01177e-06
-5.01177e-06
-5.01177e-06
-5.01177e-06
-5.01177e-06
-5.01177e-06
-5.01177e-06
-5.01177e-06
-5.01176e-06
-5.01176e-06
-5.01176e-06
-5.01176e-06
-5.01176e-06
-5.01176e-06
-5.01176e-06
-5.01176e-06
-5.01176e-06
-5.01176e-06
-5.01176e-06
-5.01176e-06
-5.01176e-06
-5.01176e-06
-5.01176e-06
-5.01176e-06
-5.01176e-06
-5.01176e-06
-5.01176e-06
-5.01176e-06
-5.01176e-06
-5.01176e-06
-5.01176e-06
-5.01176e-06
-5.01176e-06
-5.01175e-06
-5.01175e-06
-5.01175e-06
-5.01175e-06
-5.01175e-06
-5.01175e-06
-5.01175e-06
-5.01175e-06
-5.01175e-06
-5.01175e-06
-5.01175e-06
-5.01175e-06
-5.01174e-06
-5.01174e-06
-5.01174e-06
-5.01174e-06
-5.01174e-06
-5.01174e-06
-5.01174e-06
-5.01173e-06
-5.01173e-06
-5.01173e-06
-5.01173e-06
-5.01173e-06
-5.01173e-06
-5.01172e-06
-5.01172e-06
-5.01172e-06
-5.01172e-06
-5.01172e-06
-5.01172e-06
-5.01172e-06
-5.01171e-06
-5.01171e-06
-5.01171e-06
-5.01171e-06
-5.01171e-06
-5.0117e-06
-5.0117e-06
-5.0117e-06
-5.0117e-06
-5.0117e-06
-5.01169e-06
-5.01169e-06
-5.01169e-06
-5.01169e-06
-5.01169e-06
-5.01169e-06
-5.01168e-06
-5.01168e-06
-5.01168e-06
-5.01168e-06
-5.01168e-06
-5.01168e-06
-5.01168e-06
-5.01167e-06
-5.01167e-06
-5.01167e-06
-5.01167e-06
-5.01167e-06
-5.01167e-06
-5.01167e-06
-5.01167e-06
-5.01167e-06
-5.01166e-06
-5.01166e-06
-5.01166e-06
-5.01166e-06
-5.01166e-06
-5.01166e-06
-5.01166e-06
-5.01166e-06
-5.01166e-06
-5.01166e-06
-5.01166e-06
-5.01166e-06
-5.01166e-06
-5.01166e-06
-5.01166e-06
-5.01166e-06
-5.01166e-06
-5.01166e-06
-5.01166e-06
-5.01166e-06
-5.01166e-06
-5.01166e-06
-5.01166e-06
-5.01166e-06
-5.01166e-06
-5.01166e-06
-5.01166e-06
-5.01166e-06
-5.01166e-06
-5.01167e-06
-5.01167e-06
-5.01167e-06
-5.01167e-06
-5.01167e-06
-5.01167e-06
-5.01167e-06
-5.01167e-06
-5.01167e-06
-5.01167e-06
-5.01168e-06
-5.01168e-06
-5.01168e-06
-5.01168e-06
-5.01168e-06
-5.01168e-06
-5.01168e-06
-5.01168e-06
-5.01168e-06
-5.01168e-06
-5.01168e-06
-5.01168e-06
-5.01169e-06
-5.01169e-06
-5.01169e-06
-5.01169e-06
-5.01169e-06
-5.01169e-06
-5.01169e-06
-5.01169e-06
-5.01169e-06
-5.01169e-06
-5.01169e-06
-5.01169e-06
-5.01169e-06
-5.01169e-06
-5.01169e-06
-5.01169e-06
-5.01169e-06
-5.01169e-06
-5.01169e-06
-5.01169e-06
-5.01168e-06
-5.01168e-06
-5.01168e-06
-5.01168e-06
-5.01168e-06
-5.01168e-06
-5.01168e-06
-5.01167e-06
-5.01167e-06
-5.01167e-06
-5.01167e-06
-5.01167e-06
-5.01166e-06
-5.01166e-06
-5.01166e-06
-5.01166e-06
-5.01165e-06
-5.01165e-06
-5.01165e-06
-5.01164e-06
-5.01164e-06
-5.01164e-06
-5.01163e-06
-5.01163e-06
-5.01163e-06
-5.01162e-06
-5.01162e-06
-5.01162e-06
-5.01161e-06
-5.01161e-06
-5.0116e-06
-5.0116e-06
-5.0116e-06
-5.01159e-06
-5.01159e-06
-5.01158e-06
-5.01158e-06
-5.01157e-06
-5.01157e-06
-5.01157e-06
-5.01156e-06
-5.01156e-06
-5.01156e-06
-5.01155e-06
-5.01155e-06
-5.01155e-06
-5.01154e-06
-5.01154e-06
-5.01154e-06
-5.01153e-06
-5.01153e-06
-5.01153e-06
-5.01152e-06
-5.01152e-06
-5.01152e-06
-5.01151e-06
-5.01151e-06
-5.01151e-06
-5.01151e-06
-5.01151e-06
-5.0115e-06
-5.0115e-06
-5.0115e-06
-5.0115e-06
-5.0115e-06
-5.0115e-06
-5.0115e-06
-5.0115e-06
-5.01149e-06
-5.0115e-06
-5.01149e-06
-5.0115e-06
-5.0115e-06
-5.0115e-06
-5.0115e-06
-5.0115e-06
-5.0115e-06
-5.0115e-06
-5.0115e-06
-5.01151e-06
-5.01151e-06
-5.01151e-06
-5.01151e-06
-5.01152e-06
-5.01152e-06
-5.01152e-06
-5.01153e-06
-5.01153e-06
-5.01153e-06
-5.01154e-06
-5.01154e-06
-5.01154e-06
-5.01155e-06
-5.01155e-06
-5.01156e-06
-5.01156e-06
-5.01157e-06
-5.01157e-06
-5.01158e-06
-5.01158e-06
-5.01158e-06
-5.01159e-06
-5.01159e-06
-5.0116e-06
-5.0116e-06
-5.01161e-06
-5.01161e-06
-5.01162e-06
-5.01162e-06
-5.01163e-06
-5.01163e-06
-5.01164e-06
-5.01164e-06
-5.01165e-06
-5.01165e-06
-5.01165e-06
-5.01166e-06
-5.01166e-06
-5.01167e-06
-5.01167e-06
-5.01168e-06
-5.01168e-06
-5.01168e-06
-5.01169e-06
-5.01169e-06
-5.0117e-06
-5.0117e-06
-5.0117e-06
-5.01171e-06
-5.01171e-06
-5.01172e-06
-5.01173e-06
-5.01173e-06
-5.01174e-06
-5.01174e-06
-5.01175e-06
-5.01176e-06
-5.01177e-06
-5.01178e-06
-5.01179e-06
-5.0118e-06
-5.01181e-06
-5.01183e-06
-5.01184e-06
-5.01186e-06
-5.01188e-06
-5.0119e-06
-5.01192e-06
-5.01195e-06
-5.01198e-06
-5.01201e-06
-5.01204e-06
-5.01208e-06
-5.01213e-06
-5.01217e-06
-5.01223e-06
-5.01229e-06
-5.01235e-06
-5.01242e-06
-5.0125e-06
-5.01259e-06
-5.01268e-06
-5.01278e-06
-5.0129e-06
-5.01303e-06
-5.01316e-06
-5.01332e-06
-5.01348e-06
-5.01366e-06
-5.01386e-06
-5.01408e-06
-5.01431e-06
-5.01457e-06
-5.01485e-06
-5.01516e-06
-5.01549e-06
-5.01586e-06
-5.01626e-06
-5.01669e-06
-5.01715e-06
-5.01766e-06
-5.01822e-06
-5.01882e-06
-5.01947e-06
-5.02017e-06
-5.02093e-06
-5.02176e-06
-5.02265e-06
-5.02362e-06
-5.02466e-06
-5.02579e-06
-5.02701e-06
-5.02832e-06
-5.02974e-06
-5.03126e-06
-5.03291e-06
-5.03468e-06
-5.03658e-06
-5.03862e-06
-5.04082e-06
-5.04318e-06
-5.04571e-06
-5.04843e-06
-5.05134e-06
-5.05446e-06
-5.0578e-06
-5.06137e-06
-5.0652e-06
-5.06928e-06
-5.07365e-06
-5.07831e-06
-5.08329e-06
-5.0886e-06
-5.09425e-06
-5.10028e-06
-5.10669e-06
-5.11352e-06
-5.12078e-06
-5.1285e-06
-5.13669e-06
-5.1454e-06
-5.15463e-06
-5.16442e-06
-5.1748e-06
-5.18579e-06
-5.19742e-06
-5.20973e-06
-5.22275e-06
-5.2365e-06
-5.25103e-06
-5.26637e-06
-5.28255e-06
-5.29961e-06
-5.31759e-06
-5.33652e-06
-5.35645e-06
-5.37742e-06
-5.39947e-06
-5.42265e-06
-5.44698e-06
-5.47253e-06
-5.49934e-06
-5.52745e-06
-5.5569e-06
-5.58776e-06
-5.62007e-06
-5.65387e-06
-5.68922e-06
-5.72618e-06
-5.76479e-06
-5.8051e-06
-5.84718e-06
-5.89107e-06
-5.93684e-06
-5.98454e-06
-6.03422e-06
-6.08594e-06
-6.13977e-06
-6.19576e-06
-6.25397e-06
-6.31447e-06
-6.3773e-06
-6.44254e-06
-6.51025e-06
-6.58048e-06
-6.65331e-06
-6.72879e-06
-6.80699e-06
-6.88798e-06
-6.97182e-06
-7.05858e-06
-7.14832e-06
-7.24112e-06
-7.33704e-06
-7.43614e-06
-7.53851e-06
-7.64421e-06
-7.75331e-06
-7.86588e-06
-7.982e-06
-8.10174e-06
-8.22518e-06
-8.3524e-06
-8.48346e-06
-8.61846e-06
-8.75748e-06
-8.90059e-06
-9.04789e-06
-9.19945e-06
-9.35537e-06
-9.51575e-06
-9.68067e-06
-9.85024e-06
-1.00246e-05
-1.02037e-05
-1.03879e-05
-1.05771e-05
-1.07715e-05
-1.09712e-05
-1.11764e-05
-1.13872e-05
-1.16037e-05
-1.18261e-05
-1.20547e-05
-1.22895e-05
-1.25307e-05
-1.27787e-05
-1.30336e-05
-1.32958e-05
-1.35655e-05
-1.38387e-05
-1.41198e-05
-1.44091e-05
-1.47067e-05
-1.50129e-05
-1.5328e-05
-1.56521e-05
-1.59855e-05
-1.63283e-05
-1.66808e-05
-1.70432e-05
-1.74155e-05
-1.7798e-05
-1.81906e-05
-1.85931e-05
-1.90053e-05
-1.94267e-05
-1.98565e-05
-2.02936e-05
-2.07361e-05
-2.11817e-05
-2.16271e-05
-2.20677e-05
-2.24975e-05
-2.29085e-05
-2.32899e-05
-2.36275e-05
-2.39028e-05
-2.40918e-05
)
;

boundaryField
{
    fixedWall
    {
        type            calculated;
        value           uniform 0;
    }
    outlet
    {
        type            calculated;
        value           uniform -2.41636e-05;
    }
    defaultFaces
    {
        type            empty;
    }
}


// ************************************************************************* //
