/*--------------------------------*- C++ -*----------------------------------*\
| =========                 |                                                 |
| \\      /  F ield         | OpenFOAM: The Open Source CFD Toolbox           |
|  \\    /   O peration     | Version:  2406                                  |
|   \\  /    A nd           | Website:  www.openfoam.com                      |
|    \\/     M anipulation  |                                                 |
\*---------------------------------------------------------------------------*/
FoamFile
{
    version     2.0;
    format      ascii;
    arch        "LSB;label=32;scalar=64";
    class       volScalarField;
    location    "10";
    object      Qdot;
}
// * * * * * * * * * * * * * * * * * * * * * * * * * * * * * * * * * * * * * //

dimensions      [1 -1 -3 0 0 0 0];

internalField   nonuniform List<scalar> 
1000
(
4.98397e-14
-3.21961e-17
-4.44988e-16
3.80443e-09
1.14133e-08
4.97923e-08
1.93714e-07
6.12638e-07
1.689e-06
4.15753e-06
9.28712e-06
1.91279e-05
3.67389e-05
6.64301e-05
0.000113953
0.000186636
0.000293442
0.000444937
0.000653115
0.000931206
0.00129332
0.00175405
0.00232808
0.00302963
0.00387208
0.00486743
0.00602595
0.00735575
0.00886255
0.0105494
0.0124166
0.0144617
0.0166792
0.0190611
0.0215968
0.0242735
0.0270761
0.0299881
0.0329913
0.0360669
0.039195
0.0423557
0.0455289
0.0486952
0.0518355
0.0549316
0.0579667
0.060925
0.0637922
0.0665558
0.0692044
0.0717288
0.0741211
0.0763752
0.0784863
0.0804515
0.0822691
0.0839388
0.0854613
0.0868388
0.0880742
0.0891713
0.0901346
0.0909693
0.0916812
0.0922762
0.0927609
0.0931418
0.0934257
0.0936193
0.0937295
0.0937629
0.0937262
0.0936257
0.0934677
0.0932581
0.0930027
0.0927069
0.092376
0.0920147
0.0916276
0.0912191
0.090793
0.0903531
0.0899028
0.0894451
0.088983
0.088519
0.0880554
0.0875945
0.087138
0.0866877
0.086245
0.0858113
0.0853877
0.0849751
0.0845745
0.0841866
0.0838118
0.0834507
0.0831036
0.0827708
0.0824526
0.0821489
0.0818599
0.0815855
0.0813257
0.0810803
0.0808491
0.080632
0.0804288
0.080239
0.0800626
0.0798991
0.0797482
0.0796096
0.079483
0.0793679
0.0792641
0.079171
0.0790885
0.0790161
0.0789534
0.0789001
0.0788558
0.0788201
0.0787927
0.0787733
0.0787615
0.078757
0.0787594
0.0787685
0.078784
0.0788054
0.0788326
0.0788653
0.0789033
0.0789461
0.0789937
0.0790457
0.079102
0.0791622
0.0792263
0.079294
0.079365
0.0794393
0.0795166
0.0795968
0.0796796
0.079765
0.0798528
0.0799428
0.080035
0.0801293
0.0802251
0.0803226
0.0804223
0.0805235
0.0806262
0.0807304
0.0808358
0.0809425
0.0810504
0.081159
0.0812685
0.0813795
0.0814914
0.0816041
0.0817176
0.0818318
0.0819467
0.0820623
0.0821785
0.0822953
0.0824126
0.0825304
0.0826487
0.0827675
0.0828867
0.0830064
0.0831265
0.0832469
0.0833678
0.083489
0.0836105
0.0837324
0.0838546
0.083977
0.0840998
0.0842228
0.0843461
0.0844697
0.0845935
0.0847176
0.0848419
0.0849665
0.0850913
0.0852164
0.0853416
0.0854671
0.0855928
0.0857188
0.085845
0.0859714
0.086098
0.0862248
0.0863519
0.0864791
0.0866066
0.0867343
0.0868623
0.0869904
0.0871188
0.0872474
0.0873762
0.0875053
0.0876346
0.0877641
0.0878938
0.0880237
0.0881539
0.0882844
0.088415
0.0885459
0.088677
0.0888084
0.08894
0.0890718
0.0892039
0.0893362
0.0894688
0.0896016
0.0897346
0.0898679
0.0900014
0.0901351
0.0902684
0.0904028
0.0905374
0.0906723
0.0908075
0.0909428
0.0910785
0.0912144
0.0913505
0.091487
0.0916236
0.0917606
0.0918978
0.0920352
0.0921729
0.0923109
0.0924492
0.0925877
0.0927265
0.0928656
0.0930049
0.0931446
0.0932845
0.0934246
0.0935651
0.0937058
0.0938468
0.0939881
0.0941297
0.0942716
0.0944137
0.0945562
0.0946989
0.0948419
0.0949852
0.0951288
0.0952727
0.0954168
0.0955613
0.0957061
0.0958511
0.0959965
0.0961422
0.0962881
0.0964344
0.0965809
0.0967278
0.096875
0.0970224
0.0971702
0.0973183
0.0974667
0.0976154
0.0977644
0.0979137
0.0980634
0.0982133
0.0983636
0.0985142
0.0986651
0.0988163
0.0989678
0.0991197
0.0992715
0.0994232
0.099576
0.0997292
0.0998827
0.100037
0.100191
0.100345
0.1005
0.100655
0.100811
0.100967
0.101123
0.101279
0.101436
0.101593
0.101751
0.101909
0.102067
0.102226
0.102385
0.102544
0.102704
0.102864
0.103024
0.103185
0.103346
0.103507
0.103669
0.103831
0.103994
0.104157
0.10432
0.104484
0.104648
0.104812
0.104977
0.105142
0.105308
0.105474
0.10564
0.105807
0.105974
0.106141
0.106309
0.106477
0.106646
0.106815
0.106984
0.107154
0.107324
0.107495
0.107666
0.107838
0.108009
0.108182
0.108354
0.108528
0.108701
0.108875
0.109049
0.109224
0.109399
0.109575
0.109751
0.109927
0.110104
0.110282
0.110459
0.110638
0.110816
0.110995
0.111175
0.111355
0.111535
0.111716
0.111897
0.112079
0.112261
0.112444
0.112627
0.112811
0.112995
0.113179
0.113364
0.113549
0.113735
0.113921
0.114108
0.114295
0.114483
0.114671
0.11486
0.115049
0.115239
0.115429
0.115619
0.11581
0.116002
0.116194
0.116386
0.116579
0.116772
0.116966
0.117161
0.117356
0.117551
0.117747
0.117943
0.11814
0.118337
0.118535
0.118733
0.118932
0.119131
0.119331
0.119532
0.119732
0.119934
0.120135
0.120338
0.120541
0.120744
0.120948
0.121152
0.121357
0.121562
0.121768
0.121975
0.122182
0.122389
0.122597
0.122806
0.123015
0.123224
0.123434
0.123645
0.123856
0.124068
0.12428
0.124493
0.124706
0.12492
0.125135
0.125349
0.125565
0.125781
0.125998
0.126215
0.126433
0.126651
0.12687
0.127089
0.127309
0.127529
0.127751
0.127972
0.128194
0.128417
0.128641
0.128865
0.129089
0.129314
0.12954
0.129766
0.129993
0.130221
0.130449
0.130677
0.130907
0.131137
0.131367
0.131598
0.13183
0.132062
0.132295
0.132529
0.132763
0.132998
0.133233
0.133469
0.133706
0.133943
0.134181
0.13442
0.134659
0.134899
0.135139
0.13538
0.135622
0.135864
0.136107
0.136351
0.136596
0.136841
0.137086
0.137333
0.13758
0.137827
0.138076
0.138325
0.138575
0.138825
0.139076
0.139328
0.13958
0.139834
0.140087
0.140342
0.140597
0.140853
0.14111
0.141367
0.141625
0.141884
0.142143
0.142404
0.142664
0.142926
0.143188
0.143452
0.143715
0.14398
0.144245
0.144511
0.144778
0.145045
0.145314
0.145583
0.145852
0.146123
0.146394
0.146666
0.146939
0.147212
0.147487
0.147762
0.148037
0.148314
0.148591
0.148869
0.149148
0.149428
0.149709
0.14999
0.150272
0.150555
0.150838
0.151123
0.151408
0.151694
0.151981
0.152269
0.152557
0.152846
0.153136
0.153427
0.153719
0.154012
0.154305
0.154599
0.154894
0.15519
0.155487
0.155785
0.156083
0.156382
0.156683
0.156984
0.157285
0.157588
0.157892
0.158196
0.158502
0.158808
0.159115
0.159423
0.159732
0.160041
0.160352
0.160664
0.160976
0.161289
0.161604
0.161919
0.162235
0.162552
0.16287
0.163189
0.163508
0.163829
0.164151
0.164473
0.164797
0.165121
0.165447
0.165773
0.166101
0.166429
0.166759
0.167089
0.16742
0.167752
0.168086
0.16842
0.168755
0.169092
0.169429
0.169767
0.170107
0.170447
0.170788
0.171131
0.171474
0.171819
0.172164
0.172511
0.172859
0.173207
0.173557
0.173908
0.17426
0.174613
0.174967
0.175321
0.175676
0.176033
0.176391
0.176751
0.177112
0.177473
0.177836
0.1782
0.178566
0.178932
0.179299
0.179668
0.180038
0.180409
0.180781
0.181154
0.181528
0.181904
0.182281
0.182659
0.183038
0.183418
0.1838
0.184182
0.184566
0.184952
0.185338
0.185725
0.186114
0.186504
0.186896
0.187288
0.187682
0.188077
0.188473
0.188871
0.189269
0.18967
0.190071
0.190473
0.190877
0.191283
0.191689
0.192097
0.192506
0.192916
0.193328
0.193741
0.194155
0.194571
0.194988
0.195406
0.195825
0.196246
0.196669
0.197092
0.197517
0.197944
0.19837
0.198797
0.199227
0.199659
0.200092
0.200527
0.200962
0.2014
0.201838
0.202278
0.20272
0.203163
0.203607
0.204053
0.2045
0.204949
0.205399
0.20585
0.206303
0.206757
0.207213
0.207671
0.20813
0.20859
0.209052
0.209515
0.20998
0.210446
0.210914
0.211383
0.211854
0.212327
0.212801
0.213277
0.213754
0.214233
0.214713
0.215195
0.215678
0.216164
0.21665
0.217139
0.217629
0.218121
0.218614
0.219109
0.219606
0.220104
0.220604
0.221106
0.22161
0.222115
0.222622
0.223131
0.223642
0.224154
0.224668
0.225184
0.225702
0.226221
0.226743
0.227266
0.227791
0.228318
0.228847
0.229377
0.22991
0.230444
0.23098
0.231515
0.232055
0.232597
0.233141
0.233687
0.234235
0.234785
0.235336
0.23589
0.236446
0.237004
0.237564
0.238126
0.23869
0.239257
0.239825
0.240395
0.240968
0.241542
0.242119
0.242698
0.243278
0.243862
0.244447
0.245034
0.245624
0.246216
0.246808
0.247401
0.247999
0.248599
0.249201
0.249806
0.250412
0.251021
0.251632
0.252245
0.252861
0.253478
0.254098
0.254721
0.255345
0.255972
0.256601
0.257232
0.257865
0.258501
0.259139
0.25978
0.260422
0.261068
0.261715
0.262365
0.263017
0.263671
0.264328
0.264987
0.265648
0.266312
0.266978
0.267647
0.268318
0.268991
0.269667
0.270346
0.271026
0.271709
0.272395
0.273083
0.273774
0.274466
0.275162
0.27586
0.27656
0.277263
0.277969
0.278677
0.279387
0.2801
0.280816
0.281534
0.282255
0.282978
0.283704
0.284433
0.285165
0.285899
0.286636
0.287375
0.288118
0.288863
0.289611
0.290363
0.291117
0.291874
0.292635
0.293399
0.294167
0.294937
0.295712
0.296491
0.297273
0.29806
0.298851
0.299647
0.300448
0.301254
0.302065
0.302883
0.303707
0.304538
0.305377
0.306223
0.307078
0.307943
0.308818
0.309703
0.310601
0.311511
0.312436
0.313376
0.314333
0.315307
0.316302
0.317318
0.318358
0.319423
0.320517
0.32164
0.322796
0.323988
0.325219
0.326492
0.327811
0.329179
0.330601
0.332081
0.333623
0.335233
0.336917
0.338678
0.340525
0.342463
0.344498
0.346638
0.348891
0.351263
0.353765
0.356403
0.359187
0.362127
0.365232
0.368512
0.371978
0.375639
0.379508
0.383594
0.387909
0.392464
0.39727
0.402337
0.407677
0.413299
0.419212
0.425426
0.431948
0.438785
0.44594
0.453418
0.461218
0.46934
0.477779
0.486526
0.495569
0.504892
0.514474
0.524288
0.5343
0.544469
0.55475
0.565086
0.575413
0.585657
0.595736
0.605556
0.615013
0.623994
0.632373
0.640018
0.646784
0.65252
0.657068
0.660264
0.661943
0.661941
0.660094
0.65625
0.650266
0.642018
0.631403
0.618343
0.602797
0.584758
0.564263
0.541395
0.516287
0.489122
0.460136
0.429614
0.397885
0.36532
0.33232
0.299308
0.266714
0.234965
0.204468
0.175595
0.148673
0.123968
0.10179
0.0822308
0.0650048
0.0503273
0.038091
0.0281268
0.0202168
0.0141085
0.00953175
0.00621379
0.0038941
0.00233598
0.00133478
0.000722402
0.000367909
0.000174986
7.70421e-05
3.10744e-05
1.1343e-05
3.69248e-06
1.05391e-06
2.58709e-07
5.28411e-08
8.21696e-09
1.08211e-09
-4.54628e-10
-1.43932e-17
-5.33358e-11
-1.3974e-20
2.40522e-11
)
;

boundaryField
{
    fixedWall
    {
        type            calculated;
        value           uniform 0;
    }
    outlet
    {
        type            calculated;
        value           uniform 0;
    }
    defaultFaces
    {
        type            empty;
    }
}


// ************************************************************************* //
