/*--------------------------------*- C++ -*----------------------------------*\
| =========                 |                                                 |
| \\      /  F ield         | OpenFOAM: The Open Source CFD Toolbox           |
|  \\    /   O peration     | Version:  2406                                  |
|   \\  /    A nd           | Website:  www.openfoam.com                      |
|    \\/     M anipulation  |                                                 |
\*---------------------------------------------------------------------------*/
FoamFile
{
    version     2.0;
    format      ascii;
    arch        "LSB;label=32;scalar=64";
    class       volScalarField;
    location    "10";
    object      T;
}
// * * * * * * * * * * * * * * * * * * * * * * * * * * * * * * * * * * * * * //

dimensions      [0 0 0 1 0 0 0];

internalField   nonuniform List<scalar> 
1000
(
305.868
329.563
351.483
371.915
391.072
409.121
426.193
442.395
457.814
472.525
486.589
500.061
512.987
525.406
537.354
548.862
559.958
570.666
581.009
591.007
600.677
610.037
619.101
627.883
636.395
644.651
652.659
660.431
667.975
675.3
682.415
689.327
696.043
702.57
708.913
715.08
721.076
726.906
732.576
738.089
743.451
748.666
753.739
758.673
763.473
768.141
772.682
777.099
781.395
785.574
789.639
793.592
797.436
801.175
804.81
808.345
811.782
815.123
818.372
821.529
824.598
827.581
830.479
833.296
836.032
838.69
841.272
843.779
846.214
848.579
850.874
853.102
855.265
857.364
859.4
861.376
863.292
865.151
866.953
868.701
870.395
872.037
873.628
875.17
876.664
878.11
879.512
880.868
882.182
883.453
884.683
885.874
887.026
888.139
889.217
890.258
891.265
892.238
893.178
894.086
894.964
895.811
896.629
897.419
898.181
898.917
899.626
900.311
900.971
901.607
902.22
902.811
903.381
903.93
904.458
904.967
905.456
905.928
906.381
906.818
907.238
907.641
908.029
908.402
908.76
909.105
909.435
909.753
910.058
910.35
910.631
910.901
911.159
911.407
911.644
911.872
912.09
912.299
912.499
912.691
912.874
913.05
913.218
913.379
913.532
913.679
913.82
913.954
914.082
914.205
914.321
914.432
914.539
914.64
914.737
914.829
914.917
915.001
915.081
915.158
915.23
915.299
915.365
915.428
915.487
915.544
915.598
915.649
915.698
915.744
915.788
915.829
915.869
915.906
915.942
915.975
916.007
916.037
916.066
916.093
916.119
916.143
916.166
916.188
916.208
916.227
916.246
916.263
916.279
916.294
916.309
916.322
916.335
916.347
916.359
916.369
916.379
916.389
916.397
916.406
916.413
916.421
916.427
916.434
916.44
916.445
916.45
916.455
916.459
916.464
916.467
916.471
916.474
916.477
916.48
916.483
916.485
916.487
916.489
916.491
916.493
916.494
916.496
916.497
916.498
916.499
916.5
916.501
916.501
916.502
916.502
916.503
916.503
916.504
916.504
916.504
916.504
916.504
916.504
916.504
916.504
916.504
916.504
916.504
916.503
916.503
916.503
916.503
916.502
916.502
916.502
916.501
916.501
916.501
916.5
916.5
916.5
916.499
916.499
916.499
916.498
916.498
916.498
916.497
916.497
916.497
916.496
916.496
916.496
916.495
916.495
916.495
916.494
916.494
916.494
916.493
916.493
916.493
916.493
916.492
916.492
916.492
916.492
916.492
916.491
916.491
916.491
916.491
916.491
916.491
916.491
916.49
916.49
916.49
916.49
916.49
916.49
916.49
916.49
916.49
916.49
916.49
916.49
916.49
916.49
916.49
916.49
916.49
916.49
916.49
916.49
916.491
916.491
916.491
916.491
916.491
916.491
916.491
916.492
916.492
916.492
916.492
916.492
916.492
916.493
916.493
916.493
916.493
916.494
916.494
916.494
916.494
916.494
916.495
916.495
916.495
916.495
916.496
916.496
916.496
916.497
916.497
916.497
916.497
916.498
916.498
916.498
916.498
916.499
916.499
916.499
916.5
916.5
916.5
916.5
916.501
916.501
916.501
916.502
916.502
916.502
916.502
916.503
916.503
916.503
916.503
916.504
916.504
916.504
916.504
916.505
916.505
916.505
916.505
916.506
916.506
916.506
916.506
916.506
916.507
916.507
916.507
916.507
916.507
916.508
916.508
916.508
916.508
916.508
916.508
916.509
916.509
916.509
916.509
916.509
916.509
916.51
916.51
916.51
916.51
916.51
916.51
916.51
916.51
916.51
916.511
916.511
916.511
916.511
916.511
916.511
916.511
916.511
916.511
916.511
916.511
916.512
916.512
916.512
916.512
916.512
916.512
916.512
916.512
916.512
916.512
916.512
916.512
916.512
916.512
916.512
916.512
916.512
916.513
916.513
916.513
916.513
916.513
916.513
916.513
916.513
916.513
916.513
916.513
916.513
916.513
916.513
916.513
916.513
916.513
916.513
916.513
916.513
916.513
916.513
916.513
916.513
916.513
916.514
916.514
916.514
916.514
916.514
916.514
916.514
916.514
916.514
916.514
916.514
916.514
916.514
916.514
916.514
916.514
916.514
916.514
916.514
916.514
916.514
916.514
916.514
916.514
916.514
916.514
916.514
916.515
916.515
916.515
916.515
916.515
916.515
916.515
916.515
916.515
916.515
916.515
916.515
916.515
916.515
916.515
916.515
916.515
916.515
916.515
916.515
916.515
916.515
916.515
916.515
916.515
916.515
916.515
916.515
916.515
916.515
916.515
916.515
916.515
916.515
916.515
916.515
916.515
916.515
916.515
916.515
916.515
916.515
916.515
916.515
916.515
916.515
916.515
916.515
916.515
916.515
916.515
916.515
916.515
916.515
916.515
916.515
916.515
916.515
916.515
916.515
916.515
916.515
916.515
916.515
916.515
916.515
916.515
916.515
916.515
916.515
916.515
916.516
916.516
916.516
916.516
916.516
916.516
916.516
916.516
916.516
916.516
916.516
916.516
916.516
916.516
916.516
916.516
916.516
916.516
916.516
916.516
916.516
916.516
916.517
916.517
916.517
916.517
916.517
916.517
916.517
916.517
916.517
916.517
916.517
916.517
916.517
916.517
916.517
916.517
916.517
916.517
916.518
916.518
916.518
916.518
916.518
916.518
916.518
916.518
916.518
916.518
916.518
916.518
916.518
916.518
916.518
916.518
916.518
916.518
916.518
916.518
916.518
916.518
916.518
916.518
916.518
916.518
916.518
916.518
916.518
916.518
916.518
916.518
916.518
916.518
916.518
916.518
916.518
916.518
916.518
916.518
916.518
916.518
916.518
916.518
916.518
916.518
916.518
916.518
916.518
916.518
916.518
916.518
916.518
916.518
916.518
916.518
916.518
916.517
916.517
916.517
916.517
916.517
916.517
916.517
916.517
916.517
916.517
916.517
916.517
916.517
916.517
916.517
916.517
916.517
916.517
916.517
916.516
916.516
916.516
916.516
916.516
916.516
916.516
916.516
916.516
916.516
916.516
916.516
916.516
916.516
916.516
916.516
916.516
916.516
916.516
916.516
916.516
916.517
916.517
916.517
916.517
916.517
916.517
916.517
916.517
916.517
916.517
916.517
916.517
916.517
916.518
916.518
916.518
916.518
916.518
916.518
916.518
916.518
916.518
916.519
916.519
916.519
916.519
916.519
916.519
916.519
916.519
916.52
916.52
916.52
916.52
916.52
916.52
916.52
916.52
916.521
916.521
916.521
916.521
916.521
916.521
916.521
916.521
916.521
916.521
916.522
916.522
916.522
916.522
916.522
916.522
916.522
916.522
916.522
916.522
916.522
916.522
916.522
916.522
916.522
916.522
916.522
916.522
916.522
916.522
916.521
916.521
916.521
916.521
916.521
916.521
916.521
916.521
916.521
916.52
916.52
916.52
916.52
916.52
916.52
916.519
916.519
916.519
916.519
916.519
916.518
916.518
916.518
916.518
916.517
916.517
916.517
916.517
916.516
916.516
916.516
916.515
916.515
916.515
916.515
916.514
916.514
916.514
916.513
916.513
916.512
916.512
916.512
916.511
916.511
916.51
916.51
916.509
916.508
916.508
916.507
916.506
916.506
916.505
916.504
916.503
916.502
916.501
916.499
916.498
916.496
916.495
916.493
916.491
916.489
916.487
916.484
916.482
916.479
916.475
916.472
916.468
916.464
916.459
916.454
916.449
916.443
916.436
916.429
916.422
916.413
916.404
916.395
916.384
916.372
916.36
916.346
916.331
916.315
916.297
916.278
916.258
916.236
916.212
916.186
916.158
916.127
916.095
916.059
916.021
915.98
915.936
915.889
915.838
915.783
915.724
915.661
915.593
915.52
915.442
915.358
915.268
915.173
915.07
914.96
914.843
914.718
914.585
914.443
914.291
914.13
913.958
913.776
913.582
913.375
913.156
912.924
912.677
912.416
912.139
911.846
911.536
911.208
910.861
910.495
910.109
909.701
909.272
908.819
908.342
907.84
907.311
906.756
906.173
905.56
904.917
904.242
903.534
902.793
902.016
901.203
900.353
899.463
898.533
897.562
896.547
895.488
894.384
893.232
892.031
890.78
889.477
888.12
886.709
885.24
883.714
882.127
880.477
878.765
876.986
875.139
873.223
871.234
869.172
867.033
864.815
862.517
860.134
857.665
855.108
852.458
849.713
846.87
843.926
840.876
837.718
834.448
831.061
827.553
823.92
820.157
816.259
812.22
808.035
803.699
799.204
794.544
789.712
784.7
779.501
774.105
768.505
762.69
756.651
750.377
743.857
737.078
730.028
722.694
715.125
707.273
699.007
690.4
681.434
672.093
662.358
652.211
641.633
630.606
619.109
607.125
594.634
581.619
568.065
553.955
539.28
524.03
508.201
491.795
474.818
457.286
439.224
420.667
401.663
382.275
362.581
342.683
322.702
302.788
)
;

boundaryField
{
    fixedWall
    {
        type            fixedValue;
        value           uniform 293;
    }
    outlet
    {
        type            inletOutlet;
        inletValue      uniform 293;
        value           uniform 293;
    }
    defaultFaces
    {
        type            empty;
    }
}


// ************************************************************************* //
