/*--------------------------------*- C++ -*----------------------------------*\
| =========                 |                                                 |
| \\      /  F ield         | OpenFOAM: The Open Source CFD Toolbox           |
|  \\    /   O peration     | Version:  2406                                  |
|   \\  /    A nd           | Website:  www.openfoam.com                      |
|    \\/     M anipulation  |                                                 |
\*---------------------------------------------------------------------------*/
FoamFile
{
    version     2.0;
    format      ascii;
    arch        "LSB;label=32;scalar=64";
    class       volVectorField;
    location    "10";
    object      U;
}
// * * * * * * * * * * * * * * * * * * * * * * * * * * * * * * * * * * * * * //

dimensions      [0 1 -1 0 0 0 0];

internalField   nonuniform List<vector> 
1000
(
(-9.95498e-07 0 0)
(-4.70152e-06 0 0)
(-1.19913e-05 0 0)
(-2.20112e-05 0 0)
(-3.41219e-05 0 0)
(-4.79366e-05 0 0)
(-6.31881e-05 0 0)
(-7.96596e-05 0 0)
(-9.71685e-05 0 0)
(-0.000115562 0 0)
(-0.000134714 0 0)
(-0.000154515 0 0)
(-0.000174873 0 0)
(-0.000195706 0 0)
(-0.000216948 0 0)
(-0.000238533 0 0)
(-0.000260411 0 0)
(-0.00028253 0 0)
(-0.000304849 0 0)
(-0.00032733 0 0)
(-0.000349936 0 0)
(-0.000372636 0 0)
(-0.000395402 0 0)
(-0.000418207 0 0)
(-0.000441026 0 0)
(-0.00046384 0 0)
(-0.000486625 0 0)
(-0.000509364 0 0)
(-0.000532039 0 0)
(-0.000554636 0 0)
(-0.000577138 0 0)
(-0.000599531 0 0)
(-0.000621803 0 0)
(-0.000643943 0 0)
(-0.000665938 0 0)
(-0.000687778 0 0)
(-0.000709456 0 0)
(-0.000730959 0 0)
(-0.000752281 0 0)
(-0.000773414 0 0)
(-0.00079435 0 0)
(-0.000815084 0 0)
(-0.000835608 0 0)
(-0.000855916 0 0)
(-0.000876004 0 0)
(-0.000895867 0 0)
(-0.000915499 0 0)
(-0.000934898 0 0)
(-0.000954058 0 0)
(-0.000972976 0 0)
(-0.00099165 0 0)
(-0.00101008 0 0)
(-0.00102825 0 0)
(-0.00104618 0 0)
(-0.00106384 0 0)
(-0.00108126 0 0)
(-0.00109841 0 0)
(-0.00111531 0 0)
(-0.00113194 0 0)
(-0.00114832 0 0)
(-0.00116443 0 0)
(-0.00118028 0 0)
(-0.00119587 0 0)
(-0.00121119 0 0)
(-0.00122626 0 0)
(-0.00124106 0 0)
(-0.0012556 0 0)
(-0.00126988 0 0)
(-0.0012839 0 0)
(-0.00129766 0 0)
(-0.00131116 0 0)
(-0.00132441 0 0)
(-0.0013374 0 0)
(-0.00135014 0 0)
(-0.00136262 0 0)
(-0.00137485 0 0)
(-0.00138684 0 0)
(-0.00139857 0 0)
(-0.00141007 0 0)
(-0.00142132 0 0)
(-0.00143233 0 0)
(-0.0014431 0 0)
(-0.00145363 0 0)
(-0.00146393 0 0)
(-0.001474 0 0)
(-0.00148385 0 0)
(-0.00149346 0 0)
(-0.00150286 0 0)
(-0.00151203 0 0)
(-0.00152098 0 0)
(-0.00152972 0 0)
(-0.00153825 0 0)
(-0.00154657 0 0)
(-0.00155468 0 0)
(-0.0015626 0 0)
(-0.00157031 0 0)
(-0.00157782 0 0)
(-0.00158514 0 0)
(-0.00159227 0 0)
(-0.00159921 0 0)
(-0.00160597 0 0)
(-0.00161255 0 0)
(-0.00161895 0 0)
(-0.00162517 0 0)
(-0.00163122 0 0)
(-0.00163711 0 0)
(-0.00164283 0 0)
(-0.00164838 0 0)
(-0.00165378 0 0)
(-0.00165902 0 0)
(-0.00166411 0 0)
(-0.00166905 0 0)
(-0.00167385 0 0)
(-0.0016785 0 0)
(-0.00168301 0 0)
(-0.00168738 0 0)
(-0.00169162 0 0)
(-0.00169572 0 0)
(-0.0016997 0 0)
(-0.00170356 0 0)
(-0.00170729 0 0)
(-0.0017109 0 0)
(-0.0017144 0 0)
(-0.00171778 0 0)
(-0.00172105 0 0)
(-0.00172422 0 0)
(-0.00172728 0 0)
(-0.00173023 0 0)
(-0.00173309 0 0)
(-0.00173585 0 0)
(-0.00173851 0 0)
(-0.00174108 0 0)
(-0.00174357 0 0)
(-0.00174596 0 0)
(-0.00174827 0 0)
(-0.0017505 0 0)
(-0.00175265 0 0)
(-0.00175472 0 0)
(-0.00175672 0 0)
(-0.00175864 0 0)
(-0.00176049 0 0)
(-0.00176227 0 0)
(-0.00176399 0 0)
(-0.00176564 0 0)
(-0.00176723 0 0)
(-0.00176876 0 0)
(-0.00177023 0 0)
(-0.00177164 0 0)
(-0.001773 0 0)
(-0.00177429 0 0)
(-0.00177554 0 0)
(-0.00177675 0 0)
(-0.00177791 0 0)
(-0.00177902 0 0)
(-0.00178008 0 0)
(-0.0017811 0 0)
(-0.00178207 0 0)
(-0.00178301 0 0)
(-0.00178391 0 0)
(-0.00178477 0 0)
(-0.0017856 0 0)
(-0.00178639 0 0)
(-0.00178715 0 0)
(-0.00178788 0 0)
(-0.00178857 0 0)
(-0.00178923 0 0)
(-0.00178986 0 0)
(-0.00179046 0 0)
(-0.00179104 0 0)
(-0.0017916 0 0)
(-0.00179212 0 0)
(-0.00179263 0 0)
(-0.00179311 0 0)
(-0.00179357 0 0)
(-0.00179401 0 0)
(-0.00179443 0 0)
(-0.00179483 0 0)
(-0.00179521 0 0)
(-0.00179558 0 0)
(-0.00179592 0 0)
(-0.00179625 0 0)
(-0.00179657 0 0)
(-0.00179687 0 0)
(-0.00179715 0 0)
(-0.00179742 0 0)
(-0.00179768 0 0)
(-0.00179792 0 0)
(-0.00179816 0 0)
(-0.00179838 0 0)
(-0.00179859 0 0)
(-0.00179879 0 0)
(-0.00179898 0 0)
(-0.00179916 0 0)
(-0.00179933 0 0)
(-0.00179949 0 0)
(-0.00179965 0 0)
(-0.00179979 0 0)
(-0.00179993 0 0)
(-0.00180006 0 0)
(-0.00180019 0 0)
(-0.0018003 0 0)
(-0.00180041 0 0)
(-0.00180052 0 0)
(-0.00180062 0 0)
(-0.00180071 0 0)
(-0.0018008 0 0)
(-0.00180089 0 0)
(-0.00180097 0 0)
(-0.00180104 0 0)
(-0.00180111 0 0)
(-0.00180118 0 0)
(-0.00180124 0 0)
(-0.0018013 0 0)
(-0.00180136 0 0)
(-0.00180141 0 0)
(-0.00180146 0 0)
(-0.00180151 0 0)
(-0.00180155 0 0)
(-0.00180159 0 0)
(-0.00180163 0 0)
(-0.00180167 0 0)
(-0.0018017 0 0)
(-0.00180174 0 0)
(-0.00180177 0 0)
(-0.00180179 0 0)
(-0.00180182 0 0)
(-0.00180184 0 0)
(-0.00180187 0 0)
(-0.00180189 0 0)
(-0.00180191 0 0)
(-0.00180193 0 0)
(-0.00180195 0 0)
(-0.00180196 0 0)
(-0.00180198 0 0)
(-0.00180199 0 0)
(-0.001802 0 0)
(-0.00180202 0 0)
(-0.00180203 0 0)
(-0.00180204 0 0)
(-0.00180205 0 0)
(-0.00180205 0 0)
(-0.00180206 0 0)
(-0.00180207 0 0)
(-0.00180208 0 0)
(-0.00180208 0 0)
(-0.00180209 0 0)
(-0.00180209 0 0)
(-0.0018021 0 0)
(-0.0018021 0 0)
(-0.0018021 0 0)
(-0.00180211 0 0)
(-0.00180211 0 0)
(-0.00180211 0 0)
(-0.00180211 0 0)
(-0.00180211 0 0)
(-0.00180212 0 0)
(-0.00180211 0 0)
(-0.00180212 0 0)
(-0.00180212 0 0)
(-0.00180211 0 0)
(-0.00180212 0 0)
(-0.00180211 0 0)
(-0.00180212 0 0)
(-0.00180211 0 0)
(-0.00180212 0 0)
(-0.00180211 0 0)
(-0.00180211 0 0)
(-0.00180211 0 0)
(-0.0018021 0 0)
(-0.00180211 0 0)
(-0.0018021 0 0)
(-0.0018021 0 0)
(-0.0018021 0 0)
(-0.00180209 0 0)
(-0.0018021 0 0)
(-0.00180209 0 0)
(-0.00180209 0 0)
(-0.00180209 0 0)
(-0.00180209 0 0)
(-0.00180208 0 0)
(-0.00180208 0 0)
(-0.00180208 0 0)
(-0.00180207 0 0)
(-0.00180207 0 0)
(-0.00180207 0 0)
(-0.00180206 0 0)
(-0.00180207 0 0)
(-0.00180206 0 0)
(-0.00180206 0 0)
(-0.00180206 0 0)
(-0.00180205 0 0)
(-0.00180205 0 0)
(-0.00180204 0 0)
(-0.00180205 0 0)
(-0.00180204 0 0)
(-0.00180204 0 0)
(-0.00180204 0 0)
(-0.00180203 0 0)
(-0.00180203 0 0)
(-0.00180203 0 0)
(-0.00180202 0 0)
(-0.00180202 0 0)
(-0.00180202 0 0)
(-0.00180201 0 0)
(-0.00180201 0 0)
(-0.00180201 0 0)
(-0.00180201 0 0)
(-0.00180201 0 0)
(-0.001802 0 0)
(-0.001802 0 0)
(-0.001802 0 0)
(-0.00180199 0 0)
(-0.001802 0 0)
(-0.00180199 0 0)
(-0.00180199 0 0)
(-0.00180199 0 0)
(-0.00180198 0 0)
(-0.00180199 0 0)
(-0.00180198 0 0)
(-0.00180198 0 0)
(-0.00180198 0 0)
(-0.00180198 0 0)
(-0.00180198 0 0)
(-0.00180197 0 0)
(-0.00180197 0 0)
(-0.00180197 0 0)
(-0.00180197 0 0)
(-0.00180197 0 0)
(-0.00180197 0 0)
(-0.00180196 0 0)
(-0.00180197 0 0)
(-0.00180196 0 0)
(-0.00180196 0 0)
(-0.00180196 0 0)
(-0.00180196 0 0)
(-0.00180196 0 0)
(-0.00180196 0 0)
(-0.00180196 0 0)
(-0.00180195 0 0)
(-0.00180196 0 0)
(-0.00180195 0 0)
(-0.00180196 0 0)
(-0.00180196 0 0)
(-0.00180195 0 0)
(-0.00180196 0 0)
(-0.00180195 0 0)
(-0.00180195 0 0)
(-0.00180195 0 0)
(-0.00180195 0 0)
(-0.00180195 0 0)
(-0.00180195 0 0)
(-0.00180195 0 0)
(-0.00180195 0 0)
(-0.00180195 0 0)
(-0.00180195 0 0)
(-0.00180195 0 0)
(-0.00180195 0 0)
(-0.00180195 0 0)
(-0.00180195 0 0)
(-0.00180195 0 0)
(-0.00180195 0 0)
(-0.00180195 0 0)
(-0.00180195 0 0)
(-0.00180195 0 0)
(-0.00180195 0 0)
(-0.00180196 0 0)
(-0.00180195 0 0)
(-0.00180196 0 0)
(-0.00180196 0 0)
(-0.00180196 0 0)
(-0.00180196 0 0)
(-0.00180196 0 0)
(-0.00180196 0 0)
(-0.00180196 0 0)
(-0.00180196 0 0)
(-0.00180196 0 0)
(-0.00180196 0 0)
(-0.00180196 0 0)
(-0.00180196 0 0)
(-0.00180196 0 0)
(-0.00180197 0 0)
(-0.00180197 0 0)
(-0.00180197 0 0)
(-0.00180197 0 0)
(-0.00180197 0 0)
(-0.00180197 0 0)
(-0.00180197 0 0)
(-0.00180197 0 0)
(-0.00180197 0 0)
(-0.00180197 0 0)
(-0.00180197 0 0)
(-0.00180197 0 0)
(-0.00180198 0 0)
(-0.00180198 0 0)
(-0.00180198 0 0)
(-0.00180198 0 0)
(-0.00180198 0 0)
(-0.00180198 0 0)
(-0.00180198 0 0)
(-0.00180198 0 0)
(-0.00180198 0 0)
(-0.00180198 0 0)
(-0.00180198 0 0)
(-0.00180198 0 0)
(-0.00180198 0 0)
(-0.00180198 0 0)
(-0.00180198 0 0)
(-0.00180198 0 0)
(-0.00180199 0 0)
(-0.00180199 0 0)
(-0.00180199 0 0)
(-0.00180199 0 0)
(-0.00180199 0 0)
(-0.00180199 0 0)
(-0.00180199 0 0)
(-0.00180199 0 0)
(-0.00180199 0 0)
(-0.00180199 0 0)
(-0.00180199 0 0)
(-0.00180199 0 0)
(-0.00180199 0 0)
(-0.00180199 0 0)
(-0.00180199 0 0)
(-0.00180199 0 0)
(-0.00180199 0 0)
(-0.00180199 0 0)
(-0.00180199 0 0)
(-0.00180199 0 0)
(-0.00180199 0 0)
(-0.00180199 0 0)
(-0.00180199 0 0)
(-0.00180199 0 0)
(-0.00180199 0 0)
(-0.00180199 0 0)
(-0.00180199 0 0)
(-0.00180199 0 0)
(-0.00180199 0 0)
(-0.00180199 0 0)
(-0.00180199 0 0)
(-0.00180199 0 0)
(-0.00180199 0 0)
(-0.00180199 0 0)
(-0.00180199 0 0)
(-0.00180199 0 0)
(-0.00180199 0 0)
(-0.00180199 0 0)
(-0.00180199 0 0)
(-0.00180199 0 0)
(-0.00180199 0 0)
(-0.00180199 0 0)
(-0.00180199 0 0)
(-0.00180199 0 0)
(-0.00180199 0 0)
(-0.00180199 0 0)
(-0.00180199 0 0)
(-0.00180199 0 0)
(-0.00180199 0 0)
(-0.00180199 0 0)
(-0.00180199 0 0)
(-0.00180199 0 0)
(-0.00180199 0 0)
(-0.00180199 0 0)
(-0.00180198 0 0)
(-0.00180199 0 0)
(-0.00180198 0 0)
(-0.00180199 0 0)
(-0.00180199 0 0)
(-0.00180198 0 0)
(-0.00180199 0 0)
(-0.00180198 0 0)
(-0.00180199 0 0)
(-0.00180198 0 0)
(-0.00180199 0 0)
(-0.00180198 0 0)
(-0.00180199 0 0)
(-0.00180199 0 0)
(-0.00180198 0 0)
(-0.00180199 0 0)
(-0.00180198 0 0)
(-0.00180199 0 0)
(-0.00180198 0 0)
(-0.00180199 0 0)
(-0.00180199 0 0)
(-0.00180198 0 0)
(-0.00180199 0 0)
(-0.00180198 0 0)
(-0.00180199 0 0)
(-0.00180198 0 0)
(-0.00180198 0 0)
(-0.00180199 0 0)
(-0.00180198 0 0)
(-0.00180199 0 0)
(-0.00180198 0 0)
(-0.00180199 0 0)
(-0.00180198 0 0)
(-0.00180198 0 0)
(-0.00180198 0 0)
(-0.00180198 0 0)
(-0.00180199 0 0)
(-0.00180198 0 0)
(-0.00180198 0 0)
(-0.00180198 0 0)
(-0.00180198 0 0)
(-0.00180198 0 0)
(-0.00180198 0 0)
(-0.00180198 0 0)
(-0.00180198 0 0)
(-0.00180198 0 0)
(-0.00180198 0 0)
(-0.00180198 0 0)
(-0.00180198 0 0)
(-0.00180198 0 0)
(-0.00180198 0 0)
(-0.00180198 0 0)
(-0.00180198 0 0)
(-0.00180198 0 0)
(-0.00180198 0 0)
(-0.00180198 0 0)
(-0.00180198 0 0)
(-0.00180198 0 0)
(-0.00180198 0 0)
(-0.00180198 0 0)
(-0.00180198 0 0)
(-0.00180198 0 0)
(-0.00180198 0 0)
(-0.00180198 0 0)
(-0.00180198 0 0)
(-0.00180198 0 0)
(-0.00180198 0 0)
(-0.00180198 0 0)
(-0.00180198 0 0)
(-0.00180198 0 0)
(-0.00180198 0 0)
(-0.00180198 0 0)
(-0.00180198 0 0)
(-0.00180198 0 0)
(-0.00180198 0 0)
(-0.00180197 0 0)
(-0.00180198 0 0)
(-0.00180197 0 0)
(-0.00180198 0 0)
(-0.00180198 0 0)
(-0.00180197 0 0)
(-0.00180198 0 0)
(-0.00180197 0 0)
(-0.00180197 0 0)
(-0.00180197 0 0)
(-0.00180197 0 0)
(-0.00180197 0 0)
(-0.00180197 0 0)
(-0.00180197 0 0)
(-0.00180197 0 0)
(-0.00180197 0 0)
(-0.00180197 0 0)
(-0.00180197 0 0)
(-0.00180197 0 0)
(-0.00180196 0 0)
(-0.00180197 0 0)
(-0.00180196 0 0)
(-0.00180197 0 0)
(-0.00180196 0 0)
(-0.00180197 0 0)
(-0.00180196 0 0)
(-0.00180196 0 0)
(-0.00180196 0 0)
(-0.00180196 0 0)
(-0.00180196 0 0)
(-0.00180196 0 0)
(-0.00180196 0 0)
(-0.00180196 0 0)
(-0.00180196 0 0)
(-0.00180196 0 0)
(-0.00180196 0 0)
(-0.00180196 0 0)
(-0.00180196 0 0)
(-0.00180195 0 0)
(-0.00180196 0 0)
(-0.00180196 0 0)
(-0.00180195 0 0)
(-0.00180196 0 0)
(-0.00180195 0 0)
(-0.00180196 0 0)
(-0.00180195 0 0)
(-0.00180196 0 0)
(-0.00180195 0 0)
(-0.00180195 0 0)
(-0.00180195 0 0)
(-0.00180195 0 0)
(-0.00180196 0 0)
(-0.00180195 0 0)
(-0.00180195 0 0)
(-0.00180195 0 0)
(-0.00180195 0 0)
(-0.00180195 0 0)
(-0.00180195 0 0)
(-0.00180195 0 0)
(-0.00180195 0 0)
(-0.00180195 0 0)
(-0.00180195 0 0)
(-0.00180195 0 0)
(-0.00180195 0 0)
(-0.00180195 0 0)
(-0.00180195 0 0)
(-0.00180195 0 0)
(-0.00180195 0 0)
(-0.00180195 0 0)
(-0.00180195 0 0)
(-0.00180195 0 0)
(-0.00180195 0 0)
(-0.00180195 0 0)
(-0.00180195 0 0)
(-0.00180195 0 0)
(-0.00180195 0 0)
(-0.00180195 0 0)
(-0.00180195 0 0)
(-0.00180195 0 0)
(-0.00180195 0 0)
(-0.00180195 0 0)
(-0.00180195 0 0)
(-0.00180196 0 0)
(-0.00180195 0 0)
(-0.00180196 0 0)
(-0.00180196 0 0)
(-0.00180196 0 0)
(-0.00180196 0 0)
(-0.00180196 0 0)
(-0.00180196 0 0)
(-0.00180196 0 0)
(-0.00180196 0 0)
(-0.00180196 0 0)
(-0.00180196 0 0)
(-0.00180196 0 0)
(-0.00180196 0 0)
(-0.00180196 0 0)
(-0.00180196 0 0)
(-0.00180196 0 0)
(-0.00180196 0 0)
(-0.00180196 0 0)
(-0.00180196 0 0)
(-0.00180196 0 0)
(-0.00180196 0 0)
(-0.00180196 0 0)
(-0.00180196 0 0)
(-0.00180196 0 0)
(-0.00180196 0 0)
(-0.00180196 0 0)
(-0.00180196 0 0)
(-0.00180196 0 0)
(-0.00180196 0 0)
(-0.00180196 0 0)
(-0.00180196 0 0)
(-0.00180196 0 0)
(-0.00180196 0 0)
(-0.00180196 0 0)
(-0.00180196 0 0)
(-0.00180196 0 0)
(-0.00180196 0 0)
(-0.00180196 0 0)
(-0.00180196 0 0)
(-0.00180196 0 0)
(-0.00180196 0 0)
(-0.00180196 0 0)
(-0.00180196 0 0)
(-0.00180196 0 0)
(-0.00180196 0 0)
(-0.00180196 0 0)
(-0.00180196 0 0)
(-0.00180196 0 0)
(-0.00180195 0 0)
(-0.00180196 0 0)
(-0.00180195 0 0)
(-0.00180195 0 0)
(-0.00180195 0 0)
(-0.00180195 0 0)
(-0.00180195 0 0)
(-0.00180194 0 0)
(-0.00180195 0 0)
(-0.00180194 0 0)
(-0.00180195 0 0)
(-0.00180194 0 0)
(-0.00180194 0 0)
(-0.00180194 0 0)
(-0.00180194 0 0)
(-0.00180194 0 0)
(-0.00180193 0 0)
(-0.00180194 0 0)
(-0.00180193 0 0)
(-0.00180193 0 0)
(-0.00180193 0 0)
(-0.00180193 0 0)
(-0.00180193 0 0)
(-0.00180193 0 0)
(-0.00180193 0 0)
(-0.00180193 0 0)
(-0.00180192 0 0)
(-0.00180193 0 0)
(-0.00180192 0 0)
(-0.00180192 0 0)
(-0.00180192 0 0)
(-0.00180191 0 0)
(-0.00180192 0 0)
(-0.00180191 0 0)
(-0.00180192 0 0)
(-0.00180191 0 0)
(-0.00180191 0 0)
(-0.00180191 0 0)
(-0.00180191 0 0)
(-0.00180191 0 0)
(-0.00180191 0 0)
(-0.00180191 0 0)
(-0.0018019 0 0)
(-0.00180191 0 0)
(-0.0018019 0 0)
(-0.00180191 0 0)
(-0.0018019 0 0)
(-0.0018019 0 0)
(-0.0018019 0 0)
(-0.0018019 0 0)
(-0.0018019 0 0)
(-0.0018019 0 0)
(-0.0018019 0 0)
(-0.0018019 0 0)
(-0.0018019 0 0)
(-0.0018019 0 0)
(-0.0018019 0 0)
(-0.0018019 0 0)
(-0.00180189 0 0)
(-0.0018019 0 0)
(-0.00180189 0 0)
(-0.0018019 0 0)
(-0.0018019 0 0)
(-0.0018019 0 0)
(-0.0018019 0 0)
(-0.0018019 0 0)
(-0.0018019 0 0)
(-0.0018019 0 0)
(-0.0018019 0 0)
(-0.0018019 0 0)
(-0.0018019 0 0)
(-0.0018019 0 0)
(-0.0018019 0 0)
(-0.00180191 0 0)
(-0.00180191 0 0)
(-0.00180191 0 0)
(-0.00180191 0 0)
(-0.00180191 0 0)
(-0.00180191 0 0)
(-0.00180191 0 0)
(-0.00180191 0 0)
(-0.00180192 0 0)
(-0.00180192 0 0)
(-0.00180192 0 0)
(-0.00180192 0 0)
(-0.00180192 0 0)
(-0.00180192 0 0)
(-0.00180192 0 0)
(-0.00180192 0 0)
(-0.00180193 0 0)
(-0.00180193 0 0)
(-0.00180193 0 0)
(-0.00180193 0 0)
(-0.00180193 0 0)
(-0.00180193 0 0)
(-0.00180194 0 0)
(-0.00180194 0 0)
(-0.00180194 0 0)
(-0.00180194 0 0)
(-0.00180194 0 0)
(-0.00180194 0 0)
(-0.00180194 0 0)
(-0.00180195 0 0)
(-0.00180195 0 0)
(-0.00180195 0 0)
(-0.00180195 0 0)
(-0.00180195 0 0)
(-0.00180195 0 0)
(-0.00180195 0 0)
(-0.00180195 0 0)
(-0.00180196 0 0)
(-0.00180196 0 0)
(-0.00180196 0 0)
(-0.00180196 0 0)
(-0.00180196 0 0)
(-0.00180196 0 0)
(-0.00180196 0 0)
(-0.00180196 0 0)
(-0.00180196 0 0)
(-0.00180196 0 0)
(-0.00180197 0 0)
(-0.00180197 0 0)
(-0.00180197 0 0)
(-0.00180197 0 0)
(-0.00180197 0 0)
(-0.00180197 0 0)
(-0.00180197 0 0)
(-0.00180198 0 0)
(-0.00180198 0 0)
(-0.00180198 0 0)
(-0.00180198 0 0)
(-0.00180199 0 0)
(-0.00180199 0 0)
(-0.00180199 0 0)
(-0.001802 0 0)
(-0.001802 0 0)
(-0.00180201 0 0)
(-0.00180201 0 0)
(-0.00180202 0 0)
(-0.00180202 0 0)
(-0.00180203 0 0)
(-0.00180204 0 0)
(-0.00180205 0 0)
(-0.00180206 0 0)
(-0.00180207 0 0)
(-0.00180209 0 0)
(-0.0018021 0 0)
(-0.00180212 0 0)
(-0.00180214 0 0)
(-0.00180216 0 0)
(-0.00180218 0 0)
(-0.0018022 0 0)
(-0.00180223 0 0)
(-0.00180226 0 0)
(-0.00180229 0 0)
(-0.00180233 0 0)
(-0.00180237 0 0)
(-0.00180241 0 0)
(-0.00180246 0 0)
(-0.00180251 0 0)
(-0.00180256 0 0)
(-0.00180263 0 0)
(-0.00180269 0 0)
(-0.00180277 0 0)
(-0.00180285 0 0)
(-0.00180294 0 0)
(-0.00180303 0 0)
(-0.00180314 0 0)
(-0.00180325 0 0)
(-0.00180338 0 0)
(-0.00180351 0 0)
(-0.00180366 0 0)
(-0.00180382 0 0)
(-0.00180399 0 0)
(-0.00180418 0 0)
(-0.00180439 0 0)
(-0.00180461 0 0)
(-0.00180485 0 0)
(-0.00180511 0 0)
(-0.00180538 0 0)
(-0.00180569 0 0)
(-0.00180602 0 0)
(-0.00180637 0 0)
(-0.00180675 0 0)
(-0.00180716 0 0)
(-0.0018076 0 0)
(-0.00180808 0 0)
(-0.0018086 0 0)
(-0.00180915 0 0)
(-0.00180974 0 0)
(-0.00181038 0 0)
(-0.00181107 0 0)
(-0.00181181 0 0)
(-0.0018126 0 0)
(-0.00181344 0 0)
(-0.00181435 0 0)
(-0.00181532 0 0)
(-0.00181636 0 0)
(-0.00181747 0 0)
(-0.00181866 0 0)
(-0.00181993 0 0)
(-0.00182129 0 0)
(-0.00182274 0 0)
(-0.00182428 0 0)
(-0.00182593 0 0)
(-0.00182768 0 0)
(-0.00182954 0 0)
(-0.00183153 0 0)
(-0.00183364 0 0)
(-0.00183588 0 0)
(-0.00183826 0 0)
(-0.00184079 0 0)
(-0.00184346 0 0)
(-0.0018463 0 0)
(-0.00184931 0 0)
(-0.0018525 0 0)
(-0.00185586 0 0)
(-0.00185943 0 0)
(-0.00186319 0 0)
(-0.00186716 0 0)
(-0.00187136 0 0)
(-0.00187578 0 0)
(-0.00188044 0 0)
(-0.00188535 0 0)
(-0.00189052 0 0)
(-0.00189595 0 0)
(-0.00190167 0 0)
(-0.00190767 0 0)
(-0.00191398 0 0)
(-0.00192059 0 0)
(-0.00192752 0 0)
(-0.00193479 0 0)
(-0.0019424 0 0)
(-0.00195036 0 0)
(-0.00195869 0 0)
(-0.0019674 0 0)
(-0.00197649 0 0)
(-0.00198597 0 0)
(-0.00199587 0 0)
(-0.00200618 0 0)
(-0.00201693 0 0)
(-0.00202811 0 0)
(-0.00203974 0 0)
(-0.00205183 0 0)
(-0.00206439 0 0)
(-0.00207743 0 0)
(-0.00209096 0 0)
(-0.00210498 0 0)
(-0.0021195 0 0)
(-0.00213453 0 0)
(-0.00215008 0 0)
(-0.00216615 0 0)
(-0.00218275 0 0)
(-0.00219988 0 0)
(-0.00221755 0 0)
(-0.00223576 0 0)
(-0.00225451 0 0)
(-0.0022738 0 0)
(-0.00229364 0 0)
(-0.00231403 0 0)
(-0.00233495 0 0)
(-0.00235641 0 0)
(-0.00237841 0 0)
(-0.00240094 0 0)
(-0.00242398 0 0)
(-0.00244754 0 0)
(-0.00247161 0 0)
(-0.00249617 0 0)
(-0.00252121 0 0)
(-0.00254671 0 0)
(-0.00257266 0 0)
(-0.00259904 0 0)
(-0.00262583 0 0)
(-0.00265301 0 0)
(-0.00268055 0 0)
(-0.00270843 0 0)
(-0.00273662 0 0)
(-0.00276509 0 0)
(-0.0027938 0 0)
(-0.00282272 0 0)
(-0.00285181 0 0)
(-0.00288103 0 0)
(-0.00291034 0 0)
(-0.00293969 0 0)
(-0.00296903 0 0)
(-0.00299832 0 0)
(-0.00302748 0 0)
(-0.00305647 0 0)
(-0.00308522 0 0)
(-0.00311368 0 0)
(-0.00314176 0 0)
(-0.0031694 0 0)
(-0.00319652 0 0)
(-0.00322305 0 0)
(-0.00324889 0 0)
(-0.00327397 0 0)
(-0.00329819 0 0)
(-0.00332145 0 0)
(-0.00334366 0 0)
(-0.0033647 0 0)
(-0.00338453 0 0)
(-0.0034031 0 0)
(-0.00341997 0 0)
(-0.00343474 0 0)
(-0.00344739 0 0)
(-0.00345795 0 0)
(-0.00346637 0 0)
(-0.00347255 0 0)
(-0.00347615 0 0)
(-0.00347704 0 0)
(-0.00347498 0 0)
(-0.00346963 0 0)
(-0.00346087 0 0)
(-0.00344831 0 0)
(-0.00343171 0 0)
(-0.00341074 0 0)
(-0.00338509 0 0)
(-0.00335439 0 0)
(-0.00331829 0 0)
(-0.0032764 0 0)
(-0.00322832 0 0)
(-0.00317363 0 0)
(-0.00311193 0 0)
(-0.00304276 0 0)
(-0.0029657 0 0)
(-0.00288029 0 0)
(-0.00278634 0 0)
(-0.00268393 0 0)
(-0.00257277 0 0)
(-0.00244757 0 0)
(-0.00229694 0 0)
(-0.00214588 0 0)
)
;

boundaryField
{
    fixedWall
    {
        type            fixedValue;
        value           uniform (0 0 0);
    }
    outlet
    {
        type            pressureInletOutletVelocity;
        value           uniform (-0.00214588 0 0);
    }
    defaultFaces
    {
        type            empty;
    }
}


// ************************************************************************* //
